<?xml version="1.0" encoding="ISO-8859-1"?>
<modeling>
 <generator>
  <i name="program" type="string">vasp </i>
  <i name="version" type="string">5.4.4.18Apr17-6-g9f103f2a35  </i>
  <i name="subversion" type="string">(build Feb 09 2021 16:27:36) complex            parallel </i>
  <i name="platform" type="string">IFC15_impi </i>
  <i name="date" type="string">2021 04 29 </i>
  <i name="time" type="string">03:23:23 </i>
 </generator>
 <incar>
  <i type="int" name="ISTART">     0</i>
  <i type="string" name="PREC">a</i>
  <i type="logical" name="ADDGRID"> T  </i>
  <i type="int" name="NELM">   300</i>
  <i type="int" name="NELMIN">     5</i>
  <i type="int" name="IBRION">    -1</i>
  <i name="EDIFF">      0.00000100</i>
  <i name="ENCUT">    500.00000000</i>
  <i type="logical" name="LREAL"> F  </i>
  <i type="int" name="ISMEAR">     0</i>
  <i name="SIGMA">      0.05000000</i>
  <i type="logical" name="LWAVE"> F  </i>
  <i type="logical" name="LCHARG"> F  </i>
  <v type="int" name="KPOINT_BSE">    -1     0     0     0</v>
  <i type="int" name="NELM">   300</i>
 </incar>
 <structure name="primitive_cell" >
  <crystal>
   <varray name="basis" >
    <v>      10.28518105       0.00000000       0.00000000 </v>
    <v>       5.14259052       8.90722807       0.00000000 </v>
    <v>       0.00000000       0.00000000      27.79016876 </v>
   </varray>
   <i name="volume">   2545.92553775 </i>
   <varray name="rec_basis" >
    <v>       0.09722726      -0.05613419       0.00000000 </v>
    <v>       0.00000000       0.11226837       0.00000000 </v>
    <v>       0.00000000       0.00000000       0.03598395 </v>
   </varray>
  </crystal>
  <varray name="positions" >
   <v>       0.00000000       0.00000000       0.22663990 </v>
   <v>       0.16666666      -0.08333334       0.30218653 </v>
   <v>      -0.08333334       0.16666666       0.30218653 </v>
   <v>       0.25000000       0.00000000       0.22663990 </v>
   <v>       0.00000000      -0.25000000       0.22663990 </v>
   <v>       0.25000000      -0.25000000       0.22663990 </v>
   <v>      -0.25000000       0.25000000       0.22663990 </v>
   <v>       0.00000000       0.25000000       0.22663990 </v>
   <v>      -0.25000000       0.00000000       0.22663990 </v>
   <v>      -0.08333334      -0.08333334       0.30218653 </v>
   <v>       0.16666666       0.16666666       0.30218653 </v>
   <v>       0.16666666      -0.33333334       0.30218653 </v>
   <v>      -0.33333334       0.16666666       0.30218653 </v>
   <v>       0.08333333       0.08333333       0.37716320 </v>
   <v>       0.08351614      -0.16675810       0.37729758 </v>
   <v>      -0.16675810       0.08351614       0.37729758 </v>
   <v>       0.41666666      -0.08333334       0.30218653 </v>
   <v>      -0.08333334       0.41666666       0.30218653 </v>
   <v>      -0.33333334       0.41666666       0.30218653 </v>
   <v>       0.41666666      -0.33333334       0.30218653 </v>
   <v>      -0.50000000       0.25000000       0.22663990 </v>
   <v>       0.25000000       0.25000000       0.22663990 </v>
   <v>       0.25000000      -0.50000000       0.22663990 </v>
   <v>      -0.25000000      -0.50000000       0.22663990 </v>
   <v>      -0.25000000      -0.25000000       0.22663990 </v>
   <v>      -0.50000000      -0.25000000       0.22663990 </v>
   <v>      -0.08333334      -0.33333334       0.30218653 </v>
   <v>      -0.33333334      -0.08333334       0.30218653 </v>
   <v>       0.33324190      -0.16675810       0.37729758 </v>
   <v>      -0.16675810       0.33324190       0.37729758 </v>
   <v>      -0.16675810      -0.16675810       0.37729758 </v>
   <v>       0.00000000      -0.50000000       0.22663990 </v>
   <v>      -0.50000000      -0.50000000       0.22663990 </v>
   <v>      -0.50000000       0.00000000       0.22663990 </v>
   <v>      -0.41666667       0.08333333       0.37716320 </v>
   <v>       0.08333333      -0.41666667       0.37716320 </v>
   <v>       0.33324190      -0.41648386       0.37729758 </v>
   <v>      -0.41648386       0.33324190       0.37729758 </v>
   <v>       0.33324190       0.08351614       0.37729758 </v>
   <v>       0.08351614       0.33324190       0.37729758 </v>
   <v>       0.16666666       0.41666666       0.30218653 </v>
   <v>       0.41666666       0.16666666       0.30218653 </v>
   <v>       0.41666666       0.41666666       0.30218653 </v>
   <v>       0.00012997       0.00012997       0.45242342 </v>
   <v>      -0.33333334      -0.33333334       0.30218653 </v>
   <v>       0.00012997       0.24974005       0.45242342 </v>
   <v>       0.24974005       0.00012997       0.45242342 </v>
   <v>      -0.25025995       0.00012997       0.45242342 </v>
   <v>       0.00012997      -0.25025995       0.45242342 </v>
   <v>       0.25000000      -0.25000000       0.45288750 </v>
   <v>      -0.25000000       0.25000000       0.45288750 </v>
   <v>      -0.41666667      -0.41666667       0.37716320 </v>
   <v>      -0.41648386      -0.16675810       0.37729758 </v>
   <v>      -0.16675810      -0.41648386       0.37729758 </v>
   <v>       0.33324190       0.33324190       0.37729758 </v>
   <v>       0.24974005      -0.49987003       0.45242342 </v>
   <v>      -0.49987003       0.24974005       0.45242342 </v>
   <v>      -0.49987003      -0.25025995       0.45242342 </v>
   <v>      -0.25025995      -0.49987003       0.45242342 </v>
   <v>       0.25000000       0.25000000       0.45288750 </v>
   <v>      -0.25000000      -0.25000000       0.45288750 </v>
   <v>       0.00012997      -0.49987003       0.45242342 </v>
   <v>      -0.49987003       0.00012997       0.45242342 </v>
   <v>      -0.49987003      -0.49987003       0.45242342 </v>
   <v>      -0.08333334      -0.08333334      -0.47258061 </v>
   <v>      -0.08321199       0.16660598      -0.47186093 </v>
   <v>       0.16660598      -0.08321199      -0.47186093 </v>
   <v>       0.16660598       0.16660598      -0.47186093 </v>
   <v>      -0.33339402       0.16660598      -0.47186093 </v>
   <v>       0.16660598      -0.33339402      -0.47186093 </v>
   <v>       0.41666666      -0.08333334      -0.47258061 </v>
   <v>      -0.08333334       0.41666666      -0.47258061 </v>
   <v>      -0.33339402      -0.08321199      -0.47186093 </v>
   <v>      -0.08321199      -0.33339402      -0.47186093 </v>
   <v>      -0.33339402       0.41678801      -0.47186093 </v>
   <v>       0.41678801      -0.33339402      -0.47186093 </v>
   <v>       0.41666666       0.41666666      -0.47258061 </v>
   <v>       0.16660598       0.41678801      -0.47186093 </v>
   <v>       0.41678801       0.16660598      -0.47186093 </v>
   <v>      -0.33339402      -0.33339402      -0.47186093 </v>
   <v>       0.08333333       0.08333333      -0.39746661 </v>
   <v>      -0.16565471       0.08130935      -0.39679536 </v>
   <v>       0.08130935      -0.16565471      -0.39679536 </v>
   <v>      -0.16565471      -0.16565471      -0.39679536 </v>
   <v>      -0.16565471       0.33434529      -0.39679536 </v>
   <v>       0.33434529      -0.16565471      -0.39679536 </v>
   <v>       0.07993435       0.33434529      -0.39730425 </v>
   <v>      -0.41666667       0.08333333      -0.39746661 </v>
   <v>       0.08333333      -0.41666667      -0.39746661 </v>
   <v>       0.33434529       0.08130935      -0.39679536 </v>
   <v>       0.33434529      -0.41869065      -0.39679536 </v>
   <v>      -0.41869065       0.33434529      -0.39679536 </v>
   <v>      -0.41666667      -0.41666667      -0.39746661 </v>
   <v>      -0.41869065      -0.16565471      -0.39679536 </v>
   <v>      -0.16565471      -0.41869065      -0.39679536 </v>
   <v>       0.33434529       0.33434529      -0.39679536 </v>
   <v>      -0.00285352      -0.00285352      -0.31942752 </v>
   <v>       0.25000000      -0.25000000      -0.32519129 </v>
   <v>      -0.25000000       0.25000000      -0.32519129 </v>
   <v>      -0.24429296      -0.00285352      -0.31942752 </v>
   <v>      -0.00285352      -0.24429296      -0.31942752 </v>
   <v>      -0.00285352       0.25570704      -0.31942752 </v>
   <v>       0.25570704      -0.00285352      -0.31942752 </v>
   <v>       0.25000000       0.25000000      -0.32519129 </v>
   <v>      -0.25000000      -0.25000000      -0.32519129 </v>
   <v>       0.49714648      -0.24429296      -0.31942752 </v>
   <v>      -0.24429296       0.49714648      -0.31942752 </v>
   <v>       0.25570704       0.49714648      -0.31942752 </v>
   <v>       0.49714648       0.25570704      -0.31942752 </v>
   <v>      -0.00285352       0.49714648      -0.31942752 </v>
   <v>       0.49714648      -0.00285352      -0.31942752 </v>
   <v>       0.49714648       0.49714648      -0.31942752 </v>
   <v>       0.08333333       0.08333333      -0.27956112 </v>
   <v>      -0.41666667       0.08333333      -0.27956112 </v>
   <v>       0.08333333      -0.41666667      -0.27956112 </v>
   <v>      -0.41666667      -0.41666667      -0.27956112 </v>
  </varray>
 </structure>
 <varray name="primitive_index" >
  <v type="int" >        1 </v>
  <v type="int" >       22 </v>
  <v type="int" >       27 </v>
  <v type="int" >        9 </v>
  <v type="int" >        6 </v>
  <v type="int" >       14 </v>
  <v type="int" >       15 </v>
  <v type="int" >        5 </v>
  <v type="int" >       11 </v>
  <v type="int" >       32 </v>
  <v type="int" >       17 </v>
  <v type="int" >       18 </v>
  <v type="int" >       19 </v>
  <v type="int" >       33 </v>
  <v type="int" >       38 </v>
  <v type="int" >       43 </v>
  <v type="int" >       30 </v>
  <v type="int" >       31 </v>
  <v type="int" >       23 </v>
  <v type="int" >       26 </v>
  <v type="int" >        7 </v>
  <v type="int" >       13 </v>
  <v type="int" >       10 </v>
  <v type="int" >       12 </v>
  <v type="int" >       16 </v>
  <v type="int" >        8 </v>
  <v type="int" >       28 </v>
  <v type="int" >       24 </v>
  <v type="int" >       46 </v>
  <v type="int" >       47 </v>
  <v type="int" >       48 </v>
  <v type="int" >        2 </v>
  <v type="int" >        4 </v>
  <v type="int" >        3 </v>
  <v type="int" >       35 </v>
  <v type="int" >       34 </v>
  <v type="int" >       42 </v>
  <v type="int" >       39 </v>
  <v type="int" >       41 </v>
  <v type="int" >       37 </v>
  <v type="int" >       21 </v>
  <v type="int" >       25 </v>
  <v type="int" >       29 </v>
  <v type="int" >       49 </v>
  <v type="int" >       20 </v>
  <v type="int" >       53 </v>
  <v type="int" >       57 </v>
  <v type="int" >       59 </v>
  <v type="int" >       54 </v>
  <v type="int" >       62 </v>
  <v type="int" >       63 </v>
  <v type="int" >       36 </v>
  <v type="int" >       40 </v>
  <v type="int" >       44 </v>
  <v type="int" >       45 </v>
  <v type="int" >       58 </v>
  <v type="int" >       55 </v>
  <v type="int" >       56 </v>
  <v type="int" >       60 </v>
  <v type="int" >       61 </v>
  <v type="int" >       64 </v>
  <v type="int" >       50 </v>
  <v type="int" >       51 </v>
  <v type="int" >       52 </v>
  <v type="int" >       80 </v>
  <v type="int" >       75 </v>
  <v type="int" >       70 </v>
  <v type="int" >       65 </v>
  <v type="int" >       67 </v>
  <v type="int" >       66 </v>
  <v type="int" >       78 </v>
  <v type="int" >       79 </v>
  <v type="int" >       72 </v>
  <v type="int" >       76 </v>
  <v type="int" >       71 </v>
  <v type="int" >       74 </v>
  <v type="int" >       77 </v>
  <v type="int" >       69 </v>
  <v type="int" >       73 </v>
  <v type="int" >       68 </v>
  <v type="int" >       81 </v>
  <v type="int" >       91 </v>
  <v type="int" >       86 </v>
  <v type="int" >       96 </v>
  <v type="int" >       95 </v>
  <v type="int" >       94 </v>
  <v type="int" >       85 </v>
  <v type="int" >       83 </v>
  <v type="int" >       82 </v>
  <v type="int" >       89 </v>
  <v type="int" >       90 </v>
  <v type="int" >       87 </v>
  <v type="int" >       84 </v>
  <v type="int" >       88 </v>
  <v type="int" >       92 </v>
  <v type="int" >       93 </v>
  <v type="int" >      100 </v>
  <v type="int" >      110 </v>
  <v type="int" >      111 </v>
  <v type="int" >      108 </v>
  <v type="int" >      104 </v>
  <v type="int" >      103 </v>
  <v type="int" >      106 </v>
  <v type="int" >      109 </v>
  <v type="int" >      112 </v>
  <v type="int" >      102 </v>
  <v type="int" >      107 </v>
  <v type="int" >      105 </v>
  <v type="int" >      101 </v>
  <v type="int" >       99 </v>
  <v type="int" >       98 </v>
  <v type="int" >       97 </v>
  <v type="int" >      113 </v>
  <v type="int" >      115 </v>
  <v type="int" >      114 </v>
  <v type="int" >      116 </v>
 </varray>
 <kpoints>
  <generation param="Gamma">
   <v type="int" name="divisions">       4        4        1 </v>
   <v name="usershift">      0.00000000       0.00000000       0.00000000 </v>
   <v name="genvec1">      0.25000000      -0.00000000       0.00000000 </v>
   <v name="genvec2">      0.00000000       0.25000000       0.00000000 </v>
   <v name="genvec3">      0.00000000       0.00000000       1.00000000 </v>
   <v name="shift">      0.00000000       0.00000000       0.00000000 </v>
  </generation>
  <varray name="kpointlist" >
   <v>       0.00000000       0.00000000       0.00000000 </v>
   <v>       0.25000000      -0.00000000       0.00000000 </v>
   <v>       0.50000000      -0.00000000       0.00000000 </v>
   <v>       0.00000000       0.25000000       0.00000000 </v>
   <v>       0.25000000       0.25000000       0.00000000 </v>
   <v>       0.50000000       0.25000000       0.00000000 </v>
   <v>      -0.25000000       0.25000000       0.00000000 </v>
   <v>       0.00000000       0.50000000       0.00000000 </v>
   <v>       0.25000000       0.50000000       0.00000000 </v>
   <v>       0.50000000       0.50000000       0.00000000 </v>
  </varray>
  <varray name="weights" >
   <v>       0.06250000 </v>
   <v>       0.12500000 </v>
   <v>       0.06250000 </v>
   <v>       0.12500000 </v>
   <v>       0.12500000 </v>
   <v>       0.12500000 </v>
   <v>       0.12500000 </v>
   <v>       0.06250000 </v>
   <v>       0.12500000 </v>
   <v>       0.06250000 </v>
  </varray>
 </kpoints>
 <parameters>
  <separator name="general" >
   <i type="string" name="SYSTEM">unknown system</i>
   <i type="logical" name="LCOMPAT"> F  </i>
  </separator>
  <separator name="electronic" >
   <i type="string" name="PREC">a</i>
   <i name="ENMAX">    500.00000000</i>
   <i name="ENAUG">    605.39200000</i>
   <i name="EDIFF">      0.00000100</i>
   <i type="int" name="IALGO">    38</i>
   <i type="int" name="IWAVPR">    10</i>
   <i type="int" name="NBANDS">   756</i>
   <i name="NELECT">   1256.00000000</i>
   <i type="int" name="TURBO">     0</i>
   <i type="int" name="IRESTART">     0</i>
   <i type="int" name="NREBOOT">     0</i>
   <i type="int" name="NMIN">     0</i>
   <i name="EREF">      0.00000000</i>
   <separator name="electronic smearing" >
    <i type="int" name="ISMEAR">     0</i>
    <i name="SIGMA">      0.05000000</i>
    <i name="KSPACING">      0.50000000</i>
    <i type="logical" name="KGAMMA"> T  </i>
   </separator>
   <separator name="electronic projectors" >
    <i type="logical" name="LREAL"> F  </i>
    <v name="ROPT">      0.00000000      0.00000000</v>
    <i type="int" name="LMAXPAW">  -100</i>
    <i type="int" name="LMAXMIX">     2</i>
    <i type="logical" name="NLSPLINE"> F  </i>
   </separator>
   <separator name="electronic startup" >
    <i type="int" name="ISTART">     0</i>
    <i type="int" name="ICHARG">     2</i>
    <i type="int" name="INIWAV">     1</i>
   </separator>
   <separator name="electronic spin" >
    <i type="int" name="ISPIN">     1</i>
    <i type="logical" name="LNONCOLLINEAR"> F  </i>
    <v name="MAGMOM">      1.00000000      1.00000000      1.00000000      1.00000000      1.00000000      1.00000000      1.00000000      1.00000000      1.00000000      1.00000000      1.00000000      1.00000000      1.00000000      1.00000000      1.00000000      1.00000000      1.00000000      1.00000000      1.00000000      1.00000000
      1.00000000      1.00000000      1.00000000      1.00000000      1.00000000      1.00000000      1.00000000      1.00000000      1.00000000      1.00000000      1.00000000      1.00000000      1.00000000      1.00000000      1.00000000      1.00000000      1.00000000      1.00000000      1.00000000      1.00000000
      1.00000000      1.00000000      1.00000000      1.00000000      1.00000000      1.00000000      1.00000000      1.00000000      1.00000000      1.00000000      1.00000000      1.00000000      1.00000000      1.00000000      1.00000000      1.00000000      1.00000000      1.00000000      1.00000000      1.00000000
      1.00000000      1.00000000      1.00000000      1.00000000      1.00000000      1.00000000      1.00000000      1.00000000      1.00000000      1.00000000      1.00000000      1.00000000      1.00000000      1.00000000      1.00000000      1.00000000      1.00000000      1.00000000      1.00000000      1.00000000
      1.00000000      1.00000000      1.00000000      1.00000000      1.00000000      1.00000000      1.00000000      1.00000000      1.00000000      1.00000000      1.00000000      1.00000000      1.00000000      1.00000000      1.00000000      1.00000000      1.00000000      1.00000000      1.00000000      1.00000000
      1.00000000      1.00000000      1.00000000      1.00000000      1.00000000      1.00000000      1.00000000      1.00000000      1.00000000      1.00000000      1.00000000      1.00000000      1.00000000      1.00000000      1.00000000      1.00000000</v>
    <i name="NUPDOWN">     -1.00000000</i>
    <i type="logical" name="LSORBIT"> F  </i>
    <v name="SAXIS">      0.00000000      0.00000000      1.00000000</v>
    <i type="logical" name="LSPIRAL"> F  </i>
    <v name="QSPIRAL">      0.00000000      0.00000000      0.00000000</v>
    <i type="logical" name="LZEROZ"> F  </i>
   </separator>
   <separator name="electronic exchange-correlation" >
    <i type="logical" name="LASPH"> F  </i>
    <i type="logical" name="LMETAGGA"> F  </i>
   </separator>
   <separator name="electronic convergence" >
    <i type="int" name="NELM">   300</i>
    <i type="int" name="NELMDL">    -5</i>
    <i type="int" name="NELMIN">     5</i>
    <i name="ENINI">    500.00000000</i>
    <separator name="electronic convergence detail" >
     <i type="logical" name="LDIAG"> T  </i>
     <i type="logical" name="LSUBROT"> F  </i>
     <i name="WEIMIN">      0.00000000</i>
     <i name="EBREAK">      0.00000000</i>
     <i name="DEPER">      0.30000000</i>
     <i type="int" name="NRMM">     4</i>
     <i name="TIME">      0.40000000</i>
    </separator>
   </separator>
   <separator name="electronic mixer" >
    <i name="AMIX">      0.40000000</i>
    <i name="BMIX">      1.00000000</i>
    <i name="AMIN">      0.10000000</i>
    <i name="AMIX_MAG">      1.60000000</i>
    <i name="BMIX_MAG">      1.00000000</i>
    <separator name="electronic mixer details" >
     <i type="int" name="IMIX">     4</i>
     <i type="logical" name="MIXFIRST"> F  </i>
     <i type="int" name="MAXMIX">   -45</i>
     <i name="WC">    100.00000000</i>
     <i type="int" name="INIMIX">     1</i>
     <i type="int" name="MIXPRE">     1</i>
     <i type="int" name="MREMOVE">     5</i>
    </separator>
   </separator>
   <separator name="electronic dipolcorrection" >
    <i type="logical" name="LDIPOL"> F  </i>
    <i type="logical" name="LMONO"> F  </i>
    <i type="int" name="IDIPOL">     0</i>
    <i name="EPSILON">      1.00000000</i>
    <v name="DIPOL">   -100.00000000   -100.00000000   -100.00000000</v>
    <i name="EFIELD">      0.00000000</i>
   </separator>
  </separator>
  <separator name="grids" >
   <i type="int" name="NGX">    80</i>
   <i type="int" name="NGY">    80</i>
   <i type="int" name="NGZ">   210</i>
   <i type="int" name="NGXF">   160</i>
   <i type="int" name="NGYF">   160</i>
   <i type="int" name="NGZF">   420</i>
   <i type="logical" name="ADDGRID"> T  </i>
  </separator>
  <separator name="ionic" >
   <i type="int" name="NSW">     0</i>
   <i type="int" name="IBRION">    -1</i>
   <i type="int" name="MDALGO">     0</i>
   <i type="int" name="ISIF">     2</i>
   <i name="PSTRESS">      0.00000000</i>
   <i name="EDIFFG">      0.00001000</i>
   <i type="int" name="NFREE">     0</i>
   <i name="POTIM">      0.50000000</i>
   <i name="SMASS">     -3.00000000</i>
   <i name="SCALEE">      1.00000000</i>
  </separator>
  <separator name="ionic md" >
   <i name="TEBEG">      0.00010000</i>
   <i name="TEEND">      0.00010000</i>
   <i type="int" name="NBLOCK">     1</i>
   <i type="int" name="KBLOCK">     1</i>
   <i type="int" name="NPACO">   256</i>
   <i name="APACO">     16.00000000</i>
  </separator>
  <separator name="symmetry" >
   <i type="int" name="ISYM">     2</i>
   <i name="SYMPREC">      0.00001000</i>
  </separator>
  <separator name="dos" >
   <i type="int" name="LORBIT">     0</i>
   <v name="RWIGS">     -1.00000000     -1.00000000</v>
   <i type="int" name="NEDOS">   301</i>
   <i name="EMIN">     10.00000000</i>
   <i name="EMAX">    -10.00000000</i>
   <i name="EFERMI">      0.00000000</i>
  </separator>
  <separator name="writing" >
   <i type="int" name="NWRITE">     2</i>
   <i type="logical" name="LWAVE"> F  </i>
   <i type="logical" name="LDOWNSAMPLE"> F  </i>
   <i type="logical" name="LCHARG"> F  </i>
   <i type="logical" name="LPARD"> F  </i>
   <i type="logical" name="LVTOT"> F  </i>
   <i type="logical" name="LVHAR"> F  </i>
   <i type="logical" name="LELF"> F  </i>
   <i type="logical" name="LOPTICS"> F  </i>
   <v name="STM">      0.00000000      0.00000000      0.00000000      0.00000000      0.00000000      0.00000000      0.00000000</v>
  </separator>
  <separator name="performance" >
   <i type="int" name="NPAR">     4</i>
   <i type="int" name="NSIM">     4</i>
   <i type="int" name="NBLK">    -1</i>
   <i type="logical" name="LPLANE"> T  </i>
   <i type="logical" name="LSCALAPACK"> F  </i>
   <i type="logical" name="LSCAAWARE"> F  </i>
   <i type="logical" name="LSCALU"> F  </i>
   <i type="logical" name="LASYNC"> F  </i>
   <i type="logical" name="LORBITALREAL"> F  </i>
  </separator>
  <separator name="miscellaneous" >
   <i type="int" name="IDIOT">     3</i>
   <i type="int" name="ISPECIAL">     0</i>
   <i type="logical" name="LMUSIC"> F  </i>
   <v name="POMASS">     63.54600000     16.00000000</v>
   <v name="DARWINR">      0.00000000      0.00000000</v>
   <v name="DARWINV">      1.00000000      1.00000000</v>
   <i type="logical" name="LCORR"> T  </i>
  </separator>
  <i type="logical" name="GGA_COMPAT"> T  </i>
  <i type="logical" name="LBERRY"> F  </i>
  <i type="int" name="ICORELEVEL">     0</i>
  <i type="logical" name="LDAU"> F  </i>
  <i type="int" name="I_CONSTRAINED_M">     0</i>
  <separator name="electronic exchange-correlation" >
   <i type="string" name="GGA">--</i>
   <i type="int" name="VOSKOWN">     0</i>
   <i type="logical" name="LHFCALC"> F  </i>
   <i type="string" name="PRECFOCK"></i>
   <i type="logical" name="LSYMGRAD"> F  </i>
   <i type="logical" name="LHFONE"> F  </i>
   <i type="logical" name="LRHFCALC"> F  </i>
   <i type="logical" name="LTHOMAS"> F  </i>
   <i type="logical" name="LMODELHF"> F  </i>
   <i name="ENCUT4O">     -1.00000000</i>
   <i type="int" name="EXXOEP">     0</i>
   <i type="int" name="FOURORBIT">     0</i>
   <i name="AEXX">      0.00000000</i>
   <i name="HFALPHA">      0.00000000</i>
   <i name="MCALPHA">      0.00000000</i>
   <i name="ALDAX">      1.00000000</i>
   <i name="AGGAX">      1.00000000</i>
   <i name="ALDAC">      1.00000000</i>
   <i name="AGGAC">      1.00000000</i>
   <i type="int" name="NKREDX">     1</i>
   <i type="int" name="NKREDY">     1</i>
   <i type="int" name="NKREDZ">     1</i>
   <i type="logical" name="SHIFTRED"> F  </i>
   <i type="logical" name="ODDONLY"> F  </i>
   <i type="logical" name="EVENONLY"> F  </i>
   <i type="int" name="LMAXFOCK">     0</i>
   <i type="int" name="NMAXFOCKAE">     0</i>
   <i type="logical" name="LFOCKAEDFT"> F  </i>
   <i name="HFSCREEN">      0.00000000</i>
   <i name="HFSCREENC">      0.00000000</i>
   <i type="int" name="NBANDSGWLOW">     0</i>
  </separator>
  <separator name="vdW DFT" >
   <i type="logical" name="LUSE_VDW"> F  </i>
   <i name="Zab_VDW">     -0.84910000</i>
   <i name="PARAM1">      0.12340000</i>
   <i name="PARAM2">      1.00000000</i>
   <i name="PARAM3">      0.00000000</i>
  </separator>
  <separator name="model GW" >
   <i type="int" name="MODEL_GW">     0</i>
   <i name="MODEL_EPS0">     13.16858037</i>
   <i name="MODEL_ALPHA">      1.00000000</i>
  </separator>
  <separator name="linear response parameters" >
   <i type="logical" name="LEPSILON"> F  </i>
   <i type="logical" name="LRPA"> F  </i>
   <i type="logical" name="LNABLA"> F  </i>
   <i type="logical" name="LVEL"> F  </i>
   <i type="int" name="KINTER">     0</i>
   <i name="CSHIFT">      0.10000000</i>
   <i name="OMEGAMAX">     -1.00000000</i>
   <i name="DEG_THRESHOLD">      0.00200000</i>
   <i name="RTIME">     -0.10000000</i>
   <i name="WPLASMAI">      0.00000000</i>
   <v name="DFIELD">      0.00000000      0.00000000      0.00000000</v>
   <v name="WPLASMA">      0.00000000      0.00000000      0.00000000      0.00000000      0.00000000      0.00000000      0.00000000      0.00000000      0.00000000</v>
  </separator>
  <separator name="orbital magnetization" >
   <i type="logical" name="NUCIND"> F  </i>
   <v name="MAGPOS">      0.00000000      0.00000000      0.00000000</v>
   <i type="logical" name="LNICSALL"> T  </i>
   <i type="logical" name="ORBITALMAG"> F  </i>
   <i type="logical" name="LMAGBLOCH"> F  </i>
   <i type="logical" name="LCHIMAG"> F  </i>
   <i type="logical" name="LGAUGE"> T  </i>
   <i type="int" name="MAGATOM">     0</i>
   <v name="MAGDIPOL">      0.00000000      0.00000000      0.00000000</v>
   <v name="AVECCONST">      0.00000000      0.00000000      0.00000000</v>
  </separator>
  <separator name="response functions" >
   <i type="logical" name="LADDER"> F  </i>
   <i type="logical" name="LRPAFORCE"> F  </i>
   <i type="logical" name="LFXC"> F  </i>
   <i type="logical" name="LHARTREE"> T  </i>
   <i type="int" name="IBSE">     0</i>
   <v type="int" name="KPOINT">    -1     0     0     0</v>
   <i type="logical" name="LTCTE"> F  </i>
   <i type="logical" name="LTETE"> F  </i>
   <i type="logical" name="LTRIPLET"> F  </i>
   <i type="logical" name="LFXCEPS"> F  </i>
   <i type="logical" name="LFXHEG"> F  </i>
   <i type="int" name="NATURALO">     2</i>
   <i type="logical" name="L2ORDER"> F  </i>
   <i type="logical" name="LMP2LT"> F  </i>
   <i type="logical" name="LUSEW"> F  </i>
   <i name="ENCUTGW">     -2.00000000</i>
   <i name="ENCUTGWSOFT">     -2.00000000</i>
   <i name="ENCUTLF">     -1.00000000</i>
   <i type="int" name="LMAXMP2">    -1</i>
   <i name="SCISSOR">      0.00000000</i>
   <i type="int" name="NOMEGA">     0</i>
   <i type="int" name="NOMEGAR">     0</i>
   <i type="int" name="NBANDSGW">    -1</i>
   <i type="int" name="NBANDSO">    -1</i>
   <i type="int" name="NBANDSV">    -1</i>
   <i type="int" name="NELM">   300</i>
   <i type="int" name="NELMHF">     1</i>
   <i type="int" name="DIM">     3</i>
   <i type="int" name="ANTIRES">     0</i>
   <i name="OMEGAMAX">    -30.00000000</i>
   <i name="OMEGAMIN">    -30.00000000</i>
   <i name="OMEGATL">   -200.00000000</i>
   <i type="int" name="OMEGAGRID">   140</i>
   <i name="CSHIFT">     -0.10000000</i>
   <i type="logical" name="SELFENERGY"> F  </i>
   <i type="logical" name="LSPECTRAL"> F  </i>
   <i type="logical" name="LSPECTRALGW"> F  </i>
   <i type="logical" name="LSINGLES"> F  </i>
   <i type="logical" name="LFERMIGW"> F  </i>
   <i type="logical" name="ODDONLYGW"> F  </i>
   <i type="logical" name="EVENONLYGW"> F  </i>
   <i type="int" name="NKREDLFX">     1</i>
   <i type="int" name="NKREDLFY">     1</i>
   <i type="int" name="NKREDLFZ">     1</i>
   <i type="int" name="MAXMEM">  2800</i>
   <i type="int" name="TELESCOPE">     0</i>
   <i type="int" name="TAUPAR">     1</i>
   <i type="int" name="OMEGAPAR">    -1</i>
   <i name="LAMBDA">      1.00000000</i>
  </separator>
  <separator name="External order field" >
   <i name="OFIELD_KAPPA">      0.00000000</i>
   <v name="OFIELD_K">      0.00000000      0.00000000      0.00000000</v>
   <i name="OFIELD_Q6_NEAR">      0.00000000</i>
   <i name="OFIELD_Q6_FAR">      0.00000000</i>
   <i name="OFIELD_A">      0.00000000</i>
  </separator>
 </parameters>
 <atominfo>
  <atoms>     116 </atoms>
  <types>       2 </types>
  <array name="atoms" >
   <dimension dim="1">ion</dimension>
   <field type="string">element</field>
   <field type="int">atomtype</field>
   <set>
    <rc><c>Cu</c><c>   1</c></rc>
    <rc><c>Cu</c><c>   1</c></rc>
    <rc><c>Cu</c><c>   1</c></rc>
    <rc><c>Cu</c><c>   1</c></rc>
    <rc><c>Cu</c><c>   1</c></rc>
    <rc><c>Cu</c><c>   1</c></rc>
    <rc><c>Cu</c><c>   1</c></rc>
    <rc><c>Cu</c><c>   1</c></rc>
    <rc><c>Cu</c><c>   1</c></rc>
    <rc><c>Cu</c><c>   1</c></rc>
    <rc><c>Cu</c><c>   1</c></rc>
    <rc><c>Cu</c><c>   1</c></rc>
    <rc><c>Cu</c><c>   1</c></rc>
    <rc><c>Cu</c><c>   1</c></rc>
    <rc><c>Cu</c><c>   1</c></rc>
    <rc><c>Cu</c><c>   1</c></rc>
    <rc><c>Cu</c><c>   1</c></rc>
    <rc><c>Cu</c><c>   1</c></rc>
    <rc><c>Cu</c><c>   1</c></rc>
    <rc><c>Cu</c><c>   1</c></rc>
    <rc><c>Cu</c><c>   1</c></rc>
    <rc><c>Cu</c><c>   1</c></rc>
    <rc><c>Cu</c><c>   1</c></rc>
    <rc><c>Cu</c><c>   1</c></rc>
    <rc><c>Cu</c><c>   1</c></rc>
    <rc><c>Cu</c><c>   1</c></rc>
    <rc><c>Cu</c><c>   1</c></rc>
    <rc><c>Cu</c><c>   1</c></rc>
    <rc><c>Cu</c><c>   1</c></rc>
    <rc><c>Cu</c><c>   1</c></rc>
    <rc><c>Cu</c><c>   1</c></rc>
    <rc><c>Cu</c><c>   1</c></rc>
    <rc><c>Cu</c><c>   1</c></rc>
    <rc><c>Cu</c><c>   1</c></rc>
    <rc><c>Cu</c><c>   1</c></rc>
    <rc><c>Cu</c><c>   1</c></rc>
    <rc><c>Cu</c><c>   1</c></rc>
    <rc><c>Cu</c><c>   1</c></rc>
    <rc><c>Cu</c><c>   1</c></rc>
    <rc><c>Cu</c><c>   1</c></rc>
    <rc><c>Cu</c><c>   1</c></rc>
    <rc><c>Cu</c><c>   1</c></rc>
    <rc><c>Cu</c><c>   1</c></rc>
    <rc><c>Cu</c><c>   1</c></rc>
    <rc><c>Cu</c><c>   1</c></rc>
    <rc><c>Cu</c><c>   1</c></rc>
    <rc><c>Cu</c><c>   1</c></rc>
    <rc><c>Cu</c><c>   1</c></rc>
    <rc><c>Cu</c><c>   1</c></rc>
    <rc><c>Cu</c><c>   1</c></rc>
    <rc><c>Cu</c><c>   1</c></rc>
    <rc><c>Cu</c><c>   1</c></rc>
    <rc><c>Cu</c><c>   1</c></rc>
    <rc><c>Cu</c><c>   1</c></rc>
    <rc><c>Cu</c><c>   1</c></rc>
    <rc><c>Cu</c><c>   1</c></rc>
    <rc><c>Cu</c><c>   1</c></rc>
    <rc><c>Cu</c><c>   1</c></rc>
    <rc><c>Cu</c><c>   1</c></rc>
    <rc><c>Cu</c><c>   1</c></rc>
    <rc><c>Cu</c><c>   1</c></rc>
    <rc><c>Cu</c><c>   1</c></rc>
    <rc><c>Cu</c><c>   1</c></rc>
    <rc><c>Cu</c><c>   1</c></rc>
    <rc><c>Cu</c><c>   1</c></rc>
    <rc><c>Cu</c><c>   1</c></rc>
    <rc><c>Cu</c><c>   1</c></rc>
    <rc><c>Cu</c><c>   1</c></rc>
    <rc><c>Cu</c><c>   1</c></rc>
    <rc><c>Cu</c><c>   1</c></rc>
    <rc><c>Cu</c><c>   1</c></rc>
    <rc><c>Cu</c><c>   1</c></rc>
    <rc><c>Cu</c><c>   1</c></rc>
    <rc><c>Cu</c><c>   1</c></rc>
    <rc><c>Cu</c><c>   1</c></rc>
    <rc><c>Cu</c><c>   1</c></rc>
    <rc><c>Cu</c><c>   1</c></rc>
    <rc><c>Cu</c><c>   1</c></rc>
    <rc><c>Cu</c><c>   1</c></rc>
    <rc><c>Cu</c><c>   1</c></rc>
    <rc><c>Cu</c><c>   1</c></rc>
    <rc><c>Cu</c><c>   1</c></rc>
    <rc><c>Cu</c><c>   1</c></rc>
    <rc><c>Cu</c><c>   1</c></rc>
    <rc><c>Cu</c><c>   1</c></rc>
    <rc><c>Cu</c><c>   1</c></rc>
    <rc><c>Cu</c><c>   1</c></rc>
    <rc><c>Cu</c><c>   1</c></rc>
    <rc><c>Cu</c><c>   1</c></rc>
    <rc><c>Cu</c><c>   1</c></rc>
    <rc><c>Cu</c><c>   1</c></rc>
    <rc><c>Cu</c><c>   1</c></rc>
    <rc><c>Cu</c><c>   1</c></rc>
    <rc><c>Cu</c><c>   1</c></rc>
    <rc><c>Cu</c><c>   1</c></rc>
    <rc><c>Cu</c><c>   1</c></rc>
    <rc><c>Cu</c><c>   1</c></rc>
    <rc><c>Cu</c><c>   1</c></rc>
    <rc><c>Cu</c><c>   1</c></rc>
    <rc><c>Cu</c><c>   1</c></rc>
    <rc><c>Cu</c><c>   1</c></rc>
    <rc><c>Cu</c><c>   1</c></rc>
    <rc><c>Cu</c><c>   1</c></rc>
    <rc><c>Cu</c><c>   1</c></rc>
    <rc><c>Cu</c><c>   1</c></rc>
    <rc><c>Cu</c><c>   1</c></rc>
    <rc><c>Cu</c><c>   1</c></rc>
    <rc><c>Cu</c><c>   1</c></rc>
    <rc><c>Cu</c><c>   1</c></rc>
    <rc><c>Cu</c><c>   1</c></rc>
    <rc><c>Cu</c><c>   1</c></rc>
    <rc><c>Cu</c><c>   1</c></rc>
    <rc><c>O </c><c>   2</c></rc>
    <rc><c>O </c><c>   2</c></rc>
    <rc><c>O </c><c>   2</c></rc>
    <rc><c>O </c><c>   2</c></rc>
   </set>
  </array>
  <array name="atomtypes" >
   <dimension dim="1">type</dimension>
   <field type="int">atomspertype</field>
   <field type="string">element</field>
   <field>mass</field>
   <field>valence</field>
   <field type="string">pseudopotential</field>
   <set>
    <rc><c> 112</c><c>Cu</c><c>     63.54600000</c><c>     11.00000000</c><c> PAW_PBE Cu 05Jan2001                   </c></rc>
    <rc><c>   4</c><c>O </c><c>     16.00000000</c><c>      6.00000000</c><c> PAW_PBE O 08Apr2002                    </c></rc>
   </set>
  </array>
 </atominfo>
 <structure name="initialpos" >
  <crystal>
   <varray name="basis" >
    <v>      10.28518105       0.00000000       0.00000000 </v>
    <v>       5.14259052       8.90722807       0.00000000 </v>
    <v>       0.00000000       0.00000000      27.79016876 </v>
   </varray>
   <i name="volume">   2545.92553775 </i>
   <varray name="rec_basis" >
    <v>       0.09722726      -0.05613419       0.00000000 </v>
    <v>       0.00000000       0.11226837       0.00000000 </v>
    <v>       0.00000000       0.00000000       0.03598395 </v>
   </varray>
  </crystal>
  <varray name="positions" >
   <v>       0.00000000       0.00000000       0.22663990 </v>
   <v>       0.00000000       0.50000000       0.22663990 </v>
   <v>       0.50000000       0.00000000       0.22663990 </v>
   <v>       0.50000000       0.50000000       0.22663990 </v>
   <v>       0.00000000       0.25000000       0.22663990 </v>
   <v>       0.00000000       0.75000000       0.22663990 </v>
   <v>       0.50000000       0.25000000       0.22663990 </v>
   <v>       0.50000000       0.75000000       0.22663990 </v>
   <v>       0.25000000       0.00000000       0.22663990 </v>
   <v>       0.25000000       0.50000000       0.22663990 </v>
   <v>       0.75000000       0.00000000       0.22663990 </v>
   <v>       0.75000000       0.50000000       0.22663990 </v>
   <v>       0.25000000       0.25000000       0.22663990 </v>
   <v>       0.25000000       0.75000000       0.22663990 </v>
   <v>       0.75000000       0.25000000       0.22663990 </v>
   <v>       0.75000000       0.75000000       0.22663990 </v>
   <v>       0.16666666       0.16666666       0.30218653 </v>
   <v>       0.16666666       0.66666666       0.30218653 </v>
   <v>       0.66666666       0.16666666       0.30218653 </v>
   <v>       0.66666666       0.66666666       0.30218653 </v>
   <v>       0.16666666       0.41666666       0.30218653 </v>
   <v>       0.16666666       0.91666666       0.30218653 </v>
   <v>       0.66666666       0.41666666       0.30218653 </v>
   <v>       0.66666666       0.91666666       0.30218653 </v>
   <v>       0.41666666       0.16666666       0.30218653 </v>
   <v>       0.41666666       0.66666666       0.30218653 </v>
   <v>       0.91666666       0.16666666       0.30218653 </v>
   <v>       0.91666666       0.66666666       0.30218653 </v>
   <v>       0.41666666       0.41666666       0.30218653 </v>
   <v>       0.41666666       0.91666666       0.30218653 </v>
   <v>       0.91666666       0.41666666       0.30218653 </v>
   <v>       0.91666666       0.91666666       0.30218653 </v>
   <v>       0.08333333       0.08333333       0.37716320 </v>
   <v>       0.08333333       0.58333333       0.37716320 </v>
   <v>       0.58333333       0.08333333       0.37716320 </v>
   <v>       0.58333333       0.58333333       0.37716320 </v>
   <v>       0.08351614       0.33324190       0.37729758 </v>
   <v>       0.08351614       0.83324190       0.37729758 </v>
   <v>       0.58351614       0.33324190       0.37729758 </v>
   <v>       0.58351614       0.83324190       0.37729758 </v>
   <v>       0.33324190       0.08351614       0.37729758 </v>
   <v>       0.33324190       0.58351614       0.37729758 </v>
   <v>       0.83324190       0.08351614       0.37729758 </v>
   <v>       0.83324190       0.58351614       0.37729758 </v>
   <v>       0.33324190       0.33324190       0.37729758 </v>
   <v>       0.33324190       0.83324190       0.37729758 </v>
   <v>       0.83324190       0.33324190       0.37729758 </v>
   <v>       0.83324190       0.83324190       0.37729758 </v>
   <v>       0.00012997       0.00012997       0.45242342 </v>
   <v>       0.00012997       0.50012997       0.45242342 </v>
   <v>       0.50012997       0.00012997       0.45242342 </v>
   <v>       0.50012997       0.50012997       0.45242342 </v>
   <v>       0.00012997       0.24974005       0.45242342 </v>
   <v>       0.00012997       0.74974005       0.45242342 </v>
   <v>       0.50012997       0.24974005       0.45242342 </v>
   <v>       0.50012997       0.74974005       0.45242342 </v>
   <v>       0.24974005       0.00012997       0.45242342 </v>
   <v>       0.24974005       0.50012997       0.45242342 </v>
   <v>       0.74974005       0.00012997       0.45242342 </v>
   <v>       0.74974005       0.50012997       0.45242342 </v>
   <v>       0.25000000       0.25000000       0.45288750 </v>
   <v>       0.25000000       0.75000000       0.45288750 </v>
   <v>       0.75000000       0.25000000       0.45288750 </v>
   <v>       0.75000000       0.75000000       0.45288750 </v>
   <v>       0.16660598       0.16660598       0.52813907 </v>
   <v>       0.16660598       0.66660598       0.52813907 </v>
   <v>       0.66660598       0.16660598       0.52813907 </v>
   <v>       0.66660598       0.66660598       0.52813907 </v>
   <v>       0.16660598       0.41678801       0.52813907 </v>
   <v>       0.16660598       0.91678801       0.52813907 </v>
   <v>       0.66660598       0.41678801       0.52813907 </v>
   <v>       0.66660598       0.91678801       0.52813907 </v>
   <v>       0.41678801       0.16660598       0.52813907 </v>
   <v>       0.41678801       0.66660598       0.52813907 </v>
   <v>       0.91678801       0.16660598       0.52813907 </v>
   <v>       0.91678801       0.66660598       0.52813907 </v>
   <v>       0.41666666       0.41666666       0.52741939 </v>
   <v>       0.41666666       0.91666666       0.52741939 </v>
   <v>       0.91666666       0.41666666       0.52741939 </v>
   <v>       0.91666666       0.91666666       0.52741939 </v>
   <v>       0.08333333       0.08333333       0.60253339 </v>
   <v>       0.08333333       0.58333333       0.60253339 </v>
   <v>       0.58333333       0.08333333       0.60253339 </v>
   <v>       0.58333333       0.58333333       0.60253339 </v>
   <v>       0.07993435       0.33434529       0.60269575 </v>
   <v>       0.08130935       0.83434529       0.60320464 </v>
   <v>       0.58130935       0.33434529       0.60320464 </v>
   <v>       0.58130935       0.83434529       0.60320464 </v>
   <v>       0.33434529       0.08130935       0.60320464 </v>
   <v>       0.33434529       0.58130935       0.60320464 </v>
   <v>       0.83434529       0.08130935       0.60320464 </v>
   <v>       0.83434529       0.58130935       0.60320464 </v>
   <v>       0.33434529       0.33434529       0.60320464 </v>
   <v>       0.33434529       0.83434529       0.60320464 </v>
   <v>       0.83434529       0.33434529       0.60320464 </v>
   <v>       0.83434529       0.83434529       0.60320464 </v>
   <v>       0.49714648       0.49714648       0.68057248 </v>
   <v>       0.49714648       0.99714648       0.68057248 </v>
   <v>       0.99714648       0.49714648       0.68057248 </v>
   <v>       0.99714648       0.99714648       0.68057248 </v>
   <v>       0.49714648       0.25570704       0.68057248 </v>
   <v>       0.49714648       0.75570704       0.68057248 </v>
   <v>       0.99714648       0.25570704       0.68057248 </v>
   <v>       0.99714648       0.75570704       0.68057248 </v>
   <v>       0.25570704       0.49714648       0.68057248 </v>
   <v>       0.25570704       0.99714648       0.68057248 </v>
   <v>       0.75570704       0.49714648       0.68057248 </v>
   <v>       0.75570704       0.99714648       0.68057248 </v>
   <v>       0.25000000       0.25000000       0.67480871 </v>
   <v>       0.25000000       0.75000000       0.67480871 </v>
   <v>       0.75000000       0.25000000       0.67480871 </v>
   <v>       0.75000000       0.75000000       0.67480871 </v>
   <v>       0.08333333       0.08333333       0.72043888 </v>
   <v>       0.08333333       0.58333333       0.72043888 </v>
   <v>       0.58333333       0.08333333       0.72043888 </v>
   <v>       0.58333333       0.58333333       0.72043888 </v>
  </varray>
 </structure>
 <calculation>
  <scstep>
   <time name="dav">  170.42  171.39</time>
   <time name="total">  170.99  171.99</time>
   <energy>
    <i name="alphaZ">   6463.29446255 </i>
    <i name="ewald"> 664632.06934237 </i>
    <i name="hartreedc">-815386.95270170 </i>
    <i name="XCdc">   5009.43484930 </i>
    <i name="pawpsdc"> 122173.85035501 </i>
    <i name="pawaedc">-138312.01710912 </i>
    <i name="eentropy">     -0.02911706 </i>
    <i name="bandstr">   8852.70625842 </i>
    <i name="atom"> 157518.83071590 </i>
    <i name="e_fr_energy">  10951.18705568 </i>
    <i name="e_wo_entrp">  10951.21617274 </i>
    <i name="e_0_energy">  10951.20161421 </i>
   </energy>
  </scstep>
  <scstep>
   <time name="dav">  172.40  173.35</time>
   <time name="total">  172.42  173.37</time>
   <energy>
    <i name="e_fr_energy">   1074.09263561 </i>
    <i name="e_wo_entrp">   1074.13411325 </i>
    <i name="e_0_energy">   1074.11337443 </i>
   </energy>
  </scstep>
  <scstep>
   <time name="dav">  170.88  171.93</time>
   <time name="total">  170.90  171.96</time>
   <energy>
    <i name="e_fr_energy">   -373.59575515 </i>
    <i name="e_wo_entrp">   -373.52963932 </i>
    <i name="e_0_energy">   -373.56269723 </i>
   </energy>
  </scstep>
  <scstep>
   <time name="dav">  176.52  177.49</time>
   <time name="total">  176.54  177.51</time>
   <energy>
    <i name="e_fr_energy">   -524.82455214 </i>
    <i name="e_wo_entrp">   -524.76125805 </i>
    <i name="e_0_energy">   -524.79290510 </i>
   </energy>
  </scstep>
  <scstep>
   <time name="dav">  162.77  163.66</time>
   <time name="total">  167.35  168.26</time>
   <energy>
    <i name="e_fr_energy">   -530.86670494 </i>
    <i name="e_wo_entrp">   -530.80345278 </i>
    <i name="e_0_energy">   -530.83507886 </i>
   </energy>
  </scstep>
  <scstep>
   <time name="dav">  168.42  169.33</time>
   <time name="total">  173.50  174.44</time>
   <energy>
    <i name="e_fr_energy">   -478.07478073 </i>
    <i name="e_wo_entrp">   -478.01840620 </i>
    <i name="e_0_energy">   -478.04659346 </i>
   </energy>
  </scstep>
  <scstep>
   <time name="dav">  184.80  185.79</time>
   <time name="total">  192.06  193.12</time>
   <energy>
    <i name="e_fr_energy">   -511.06487626 </i>
    <i name="e_wo_entrp">   -510.94383051 </i>
    <i name="e_0_energy">   -511.00435338 </i>
   </energy>
  </scstep>
  <scstep>
   <time name="dav">  203.08  204.17</time>
   <time name="total">  208.10  209.25</time>
   <energy>
    <i name="e_fr_energy">   -444.79185592 </i>
    <i name="e_wo_entrp">   -444.70840028 </i>
    <i name="e_0_energy">   -444.75012810 </i>
   </energy>
  </scstep>
  <scstep>
   <time name="dav">  212.42  213.67</time>
   <time name="total">  217.43  218.71</time>
   <energy>
    <i name="e_fr_energy">   -428.50546541 </i>
    <i name="e_wo_entrp">   -428.46638266 </i>
    <i name="e_0_energy">   -428.48592403 </i>
   </energy>
  </scstep>
  <scstep>
   <time name="dav">  185.75  186.76</time>
   <time name="total">  190.83  191.87</time>
   <energy>
    <i name="e_fr_energy">   -429.29995822 </i>
    <i name="e_wo_entrp">   -429.24654220 </i>
    <i name="e_0_energy">   -429.27325021 </i>
   </energy>
  </scstep>
  <scstep>
   <time name="dav">  176.14  177.10</time>
   <time name="total">  181.31  182.31</time>
   <energy>
    <i name="e_fr_energy">   -427.92920740 </i>
    <i name="e_wo_entrp">   -427.86265487 </i>
    <i name="e_0_energy">   -427.89593113 </i>
   </energy>
  </scstep>
  <scstep>
   <time name="dav">  190.48  191.56</time>
   <time name="total">  203.05  236.22</time>
   <energy>
    <i name="e_fr_energy">   -427.70170181 </i>
    <i name="e_wo_entrp">   -427.64694120 </i>
    <i name="e_0_energy">   -427.67432151 </i>
   </energy>
  </scstep>
  <scstep>
   <time name="dav">  169.71  170.65</time>
   <time name="total">  174.72  176.44</time>
   <energy>
    <i name="e_fr_energy">   -427.64656771 </i>
    <i name="e_wo_entrp">   -427.59206522 </i>
    <i name="e_0_energy">   -427.61931647 </i>
   </energy>
  </scstep>
  <scstep>
   <time name="dav">  176.48  177.53</time>
   <time name="total">  183.13  184.21</time>
   <energy>
    <i name="e_fr_energy">   -427.54146519 </i>
    <i name="e_wo_entrp">   -427.49239181 </i>
    <i name="e_0_energy">   -427.51692850 </i>
   </energy>
  </scstep>
  <scstep>
   <time name="dav">  176.08  177.10</time>
   <time name="total">  181.22  182.26</time>
   <energy>
    <i name="e_fr_energy">   -427.61029915 </i>
    <i name="e_wo_entrp">   -427.56193012 </i>
    <i name="e_0_energy">   -427.58611463 </i>
   </energy>
  </scstep>
  <scstep>
   <time name="dav">  171.46  172.39</time>
   <time name="total">  177.21  178.17</time>
   <energy>
    <i name="e_fr_energy">   -427.51210406 </i>
    <i name="e_wo_entrp">   -427.46260892 </i>
    <i name="e_0_energy">   -427.48735649 </i>
   </energy>
  </scstep>
  <scstep>
   <time name="dav">  179.34  180.83</time>
   <time name="total">  184.40  186.08</time>
   <energy>
    <i name="e_fr_energy">   -427.47850425 </i>
    <i name="e_wo_entrp">   -427.42743339 </i>
    <i name="e_0_energy">   -427.45296882 </i>
   </energy>
  </scstep>
  <scstep>
   <time name="dav">  197.70  198.83</time>
   <time name="total">  202.67  203.81</time>
   <energy>
    <i name="e_fr_energy">   -427.46492474 </i>
    <i name="e_wo_entrp">   -427.41254117 </i>
    <i name="e_0_energy">   -427.43873295 </i>
   </energy>
  </scstep>
  <scstep>
   <time name="dav">  172.29  173.26</time>
   <time name="total">  177.26  178.26</time>
   <energy>
    <i name="e_fr_energy">   -427.46490544 </i>
    <i name="e_wo_entrp">   -427.41198085 </i>
    <i name="e_0_energy">   -427.43844314 </i>
   </energy>
  </scstep>
  <scstep>
   <time name="dav">  159.83  160.75</time>
   <time name="total">  164.78  165.73</time>
   <energy>
    <i name="e_fr_energy">   -427.46535517 </i>
    <i name="e_wo_entrp">   -427.41224247 </i>
    <i name="e_0_energy">   -427.43879882 </i>
   </energy>
  </scstep>
  <scstep>
   <time name="dav">  164.13  165.03</time>
   <time name="total">  169.20  170.13</time>
   <energy>
    <i name="e_fr_energy">   -427.46575209 </i>
    <i name="e_wo_entrp">   -427.41236550 </i>
    <i name="e_0_energy">   -427.43905879 </i>
   </energy>
  </scstep>
  <scstep>
   <time name="dav">  166.69  167.65</time>
   <time name="total">  171.65  172.63</time>
   <energy>
    <i name="e_fr_energy">   -427.46583564 </i>
    <i name="e_wo_entrp">   -427.41266379 </i>
    <i name="e_0_energy">   -427.43924971 </i>
   </energy>
  </scstep>
  <scstep>
   <time name="dav">  164.00  164.88</time>
   <time name="total">  168.95  169.86</time>
   <energy>
    <i name="e_fr_energy">   -427.46583754 </i>
    <i name="e_wo_entrp">   -427.41272215 </i>
    <i name="e_0_energy">   -427.43927985 </i>
   </energy>
  </scstep>
  <scstep>
   <time name="dav">  166.10  167.02</time>
   <time name="total">  171.09  172.04</time>
   <energy>
    <i name="e_fr_energy">   -427.46597693 </i>
    <i name="e_wo_entrp">   -427.41284158 </i>
    <i name="e_0_energy">   -427.43940925 </i>
   </energy>
  </scstep>
  <scstep>
   <time name="dav">  173.30  174.36</time>
   <time name="total">  179.12  180.21</time>
   <energy>
    <i name="e_fr_energy">   -427.46614180 </i>
    <i name="e_wo_entrp">   -427.41304924 </i>
    <i name="e_0_energy">   -427.43959552 </i>
   </energy>
  </scstep>
  <scstep>
   <time name="dav">  180.33  181.32</time>
   <time name="total">  185.27  186.29</time>
   <energy>
    <i name="e_fr_energy">   -427.46638547 </i>
    <i name="e_wo_entrp">   -427.41329195 </i>
    <i name="e_0_energy">   -427.43983871 </i>
   </energy>
  </scstep>
  <scstep>
   <time name="dav">  158.42  159.33</time>
   <time name="total">  163.38  164.31</time>
   <energy>
    <i name="e_fr_energy">   -427.46660626 </i>
    <i name="e_wo_entrp">   -427.41351373 </i>
    <i name="e_0_energy">   -427.44006000 </i>
   </energy>
  </scstep>
  <scstep>
   <time name="dav">  157.77  158.64</time>
   <time name="total">  163.05  163.95</time>
   <energy>
    <i name="e_fr_energy">   -427.46681351 </i>
    <i name="e_wo_entrp">   -427.41373621 </i>
    <i name="e_0_energy">   -427.44027486 </i>
   </energy>
  </scstep>
  <scstep>
   <time name="dav">  164.92  165.88</time>
   <time name="total">  169.98  170.96</time>
   <energy>
    <i name="e_fr_energy">   -427.46693851 </i>
    <i name="e_wo_entrp">   -427.41387216 </i>
    <i name="e_0_energy">   -427.44040533 </i>
   </energy>
  </scstep>
  <scstep>
   <time name="dav">  163.65  164.54</time>
   <time name="total">  168.61  169.54</time>
   <energy>
    <i name="e_fr_energy">   -427.46706026 </i>
    <i name="e_wo_entrp">   -427.41399693 </i>
    <i name="e_0_energy">   -427.44052859 </i>
   </energy>
  </scstep>
  <scstep>
   <time name="dav">  154.66  155.60</time>
   <time name="total">  159.61  160.57</time>
   <energy>
    <i name="e_fr_energy">   -427.46714270 </i>
    <i name="e_wo_entrp">   -427.41407157 </i>
    <i name="e_0_energy">   -427.44060714 </i>
   </energy>
  </scstep>
  <scstep>
   <time name="dav">  200.47  201.56</time>
   <time name="total">  205.93  207.06</time>
   <energy>
    <i name="e_fr_energy">   -427.46721483 </i>
    <i name="e_wo_entrp">   -427.41412645 </i>
    <i name="e_0_energy">   -427.44067064 </i>
   </energy>
  </scstep>
  <scstep>
   <time name="dav">  128.27  128.97</time>
   <time name="total">  133.22  133.94</time>
   <energy>
    <i name="e_fr_energy">   -427.46724290 </i>
    <i name="e_wo_entrp">   -427.41415221 </i>
    <i name="e_0_energy">   -427.44069755 </i>
   </energy>
  </scstep>
  <scstep>
   <time name="dav">  119.75  120.40</time>
   <time name="total">  124.74  125.42</time>
   <energy>
    <i name="e_fr_energy">   -427.46726967 </i>
    <i name="e_wo_entrp">   -427.41418541 </i>
    <i name="e_0_energy">   -427.44072754 </i>
   </energy>
  </scstep>
  <scstep>
   <time name="dav">  116.78  117.42</time>
   <time name="total">  121.74  122.40</time>
   <energy>
    <i name="e_fr_energy">   -427.46728521 </i>
    <i name="e_wo_entrp">   -427.41420469 </i>
    <i name="e_0_energy">   -427.44074495 </i>
   </energy>
  </scstep>
  <scstep>
   <time name="dav">  115.92  116.56</time>
   <time name="total">  121.27  121.93</time>
   <energy>
    <i name="e_fr_energy">   -427.46729506 </i>
    <i name="e_wo_entrp">   -427.41421731 </i>
    <i name="e_0_energy">   -427.44075618 </i>
   </energy>
  </scstep>
  <scstep>
   <time name="dav">  155.89  157.38</time>
   <time name="total">  160.85  162.38</time>
   <energy>
    <i name="e_fr_energy">   -427.46730260 </i>
    <i name="e_wo_entrp">   -427.41422382 </i>
    <i name="e_0_energy">   -427.44076321 </i>
   </energy>
  </scstep>
  <scstep>
   <time name="dav">  115.99  116.62</time>
   <time name="total">  122.72  123.38</time>
   <energy>
    <i name="e_fr_energy">   -427.46730474 </i>
    <i name="e_wo_entrp">   -427.41422472 </i>
    <i name="e_0_energy">   -427.44076473 </i>
   </energy>
  </scstep>
  <scstep>
   <time name="dav">  113.49  114.09</time>
   <time name="total">  118.47  119.09</time>
   <energy>
    <i name="e_fr_energy">   -427.46730624 </i>
    <i name="e_wo_entrp">   -427.41422554 </i>
    <i name="e_0_energy">   -427.44076589 </i>
   </energy>
  </scstep>
  <scstep>
   <time name="dav">  112.50  113.12</time>
   <time name="total">  112.99  113.62</time>
   <energy>
    <i name="alphaZ">   6463.29446255 </i>
    <i name="ewald"> 664632.06934237 </i>
    <i name="hartreedc">-813423.02827597 </i>
    <i name="XCdc">   4896.83224186 </i>
    <i name="pawpsdc"> 123760.06283972 </i>
    <i name="pawaedc">-139977.12711024 </i>
    <i name="eentropy">     -0.05308084 </i>
    <i name="bandstr">  -4298.34844251 </i>
    <i name="atom"> 157518.83071590 </i>
    <i name="e_fr_energy">   -427.46730715 </i>
    <i name="e_wo_entrp">   -427.41422631 </i>
    <i name="e_0_energy">   -427.44076673 </i>
   </energy>
  </scstep>
  <structure>
   <crystal>
    <varray name="basis" >
     <v>      10.28518105       0.00000000       0.00000000 </v>
     <v>       5.14259052       8.90722807       0.00000000 </v>
     <v>       0.00000000       0.00000000      27.79016876 </v>
    </varray>
    <i name="volume">   2545.92553775 </i>
    <varray name="rec_basis" >
     <v>       0.09722726      -0.05613419       0.00000000 </v>
     <v>       0.00000000       0.11226837       0.00000000 </v>
     <v>       0.00000000       0.00000000       0.03598395 </v>
    </varray>
   </crystal>
   <varray name="positions" >
    <v>       0.00000000       0.00000000       0.22663990 </v>
    <v>       0.00000000       0.50000000       0.22663990 </v>
    <v>       0.50000000       0.00000000       0.22663990 </v>
    <v>       0.50000000       0.50000000       0.22663990 </v>
    <v>       0.00000000       0.25000000       0.22663990 </v>
    <v>       0.00000000       0.75000000       0.22663990 </v>
    <v>       0.50000000       0.25000000       0.22663990 </v>
    <v>       0.50000000       0.75000000       0.22663990 </v>
    <v>       0.25000000       0.00000000       0.22663990 </v>
    <v>       0.25000000       0.50000000       0.22663990 </v>
    <v>       0.75000000       0.00000000       0.22663990 </v>
    <v>       0.75000000       0.50000000       0.22663990 </v>
    <v>       0.25000000       0.25000000       0.22663990 </v>
    <v>       0.25000000       0.75000000       0.22663990 </v>
    <v>       0.75000000       0.25000000       0.22663990 </v>
    <v>       0.75000000       0.75000000       0.22663990 </v>
    <v>       0.16666666       0.16666666       0.30218653 </v>
    <v>       0.16666666       0.66666666       0.30218653 </v>
    <v>       0.66666666       0.16666666       0.30218653 </v>
    <v>       0.66666666       0.66666666       0.30218653 </v>
    <v>       0.16666666       0.41666666       0.30218653 </v>
    <v>       0.16666666       0.91666666       0.30218653 </v>
    <v>       0.66666666       0.41666666       0.30218653 </v>
    <v>       0.66666666       0.91666666       0.30218653 </v>
    <v>       0.41666666       0.16666666       0.30218653 </v>
    <v>       0.41666666       0.66666666       0.30218653 </v>
    <v>       0.91666666       0.16666666       0.30218653 </v>
    <v>       0.91666666       0.66666666       0.30218653 </v>
    <v>       0.41666666       0.41666666       0.30218653 </v>
    <v>       0.41666666       0.91666666       0.30218653 </v>
    <v>       0.91666666       0.41666666       0.30218653 </v>
    <v>       0.91666666       0.91666666       0.30218653 </v>
    <v>       0.08333333       0.08333333       0.37716320 </v>
    <v>       0.08333333       0.58333333       0.37716320 </v>
    <v>       0.58333333       0.08333333       0.37716320 </v>
    <v>       0.58333333       0.58333333       0.37716320 </v>
    <v>       0.08351614       0.33324190       0.37729758 </v>
    <v>       0.08351614       0.83324190       0.37729758 </v>
    <v>       0.58351614       0.33324190       0.37729758 </v>
    <v>       0.58351614       0.83324190       0.37729758 </v>
    <v>       0.33324190       0.08351614       0.37729758 </v>
    <v>       0.33324190       0.58351614       0.37729758 </v>
    <v>       0.83324190       0.08351614       0.37729758 </v>
    <v>       0.83324190       0.58351614       0.37729758 </v>
    <v>       0.33324190       0.33324190       0.37729758 </v>
    <v>       0.33324190       0.83324190       0.37729758 </v>
    <v>       0.83324190       0.33324190       0.37729758 </v>
    <v>       0.83324190       0.83324190       0.37729758 </v>
    <v>       0.00012997       0.00012997       0.45242342 </v>
    <v>       0.00012997       0.50012997       0.45242342 </v>
    <v>       0.50012997       0.00012997       0.45242342 </v>
    <v>       0.50012997       0.50012997       0.45242342 </v>
    <v>       0.00012997       0.24974005       0.45242342 </v>
    <v>       0.00012997       0.74974005       0.45242342 </v>
    <v>       0.50012997       0.24974005       0.45242342 </v>
    <v>       0.50012997       0.74974005       0.45242342 </v>
    <v>       0.24974005       0.00012997       0.45242342 </v>
    <v>       0.24974005       0.50012997       0.45242342 </v>
    <v>       0.74974005       0.00012997       0.45242342 </v>
    <v>       0.74974005       0.50012997       0.45242342 </v>
    <v>       0.25000000       0.25000000       0.45288750 </v>
    <v>       0.25000000       0.75000000       0.45288750 </v>
    <v>       0.75000000       0.25000000       0.45288750 </v>
    <v>       0.75000000       0.75000000       0.45288750 </v>
    <v>       0.16660598       0.16660598       0.52813907 </v>
    <v>       0.16660598       0.66660598       0.52813907 </v>
    <v>       0.66660598       0.16660598       0.52813907 </v>
    <v>       0.66660598       0.66660598       0.52813907 </v>
    <v>       0.16660598       0.41678801       0.52813907 </v>
    <v>       0.16660598       0.91678801       0.52813907 </v>
    <v>       0.66660598       0.41678801       0.52813907 </v>
    <v>       0.66660598       0.91678801       0.52813907 </v>
    <v>       0.41678801       0.16660598       0.52813907 </v>
    <v>       0.41678801       0.66660598       0.52813907 </v>
    <v>       0.91678801       0.16660598       0.52813907 </v>
    <v>       0.91678801       0.66660598       0.52813907 </v>
    <v>       0.41666666       0.41666666       0.52741939 </v>
    <v>       0.41666666       0.91666666       0.52741939 </v>
    <v>       0.91666666       0.41666666       0.52741939 </v>
    <v>       0.91666666       0.91666666       0.52741939 </v>
    <v>       0.08333333       0.08333333       0.60253339 </v>
    <v>       0.08333333       0.58333333       0.60253339 </v>
    <v>       0.58333333       0.08333333       0.60253339 </v>
    <v>       0.58333333       0.58333333       0.60253339 </v>
    <v>       0.07993435       0.33434529       0.60269575 </v>
    <v>       0.08130935       0.83434529       0.60320464 </v>
    <v>       0.58130935       0.33434529       0.60320464 </v>
    <v>       0.58130935       0.83434529       0.60320464 </v>
    <v>       0.33434529       0.08130935       0.60320464 </v>
    <v>       0.33434529       0.58130935       0.60320464 </v>
    <v>       0.83434529       0.08130935       0.60320464 </v>
    <v>       0.83434529       0.58130935       0.60320464 </v>
    <v>       0.33434529       0.33434529       0.60320464 </v>
    <v>       0.33434529       0.83434529       0.60320464 </v>
    <v>       0.83434529       0.33434529       0.60320464 </v>
    <v>       0.83434529       0.83434529       0.60320464 </v>
    <v>       0.49714648       0.49714648       0.68057248 </v>
    <v>       0.49714648       0.99714648       0.68057248 </v>
    <v>       0.99714648       0.49714648       0.68057248 </v>
    <v>       0.99714648       0.99714648       0.68057248 </v>
    <v>       0.49714648       0.25570704       0.68057248 </v>
    <v>       0.49714648       0.75570704       0.68057248 </v>
    <v>       0.99714648       0.25570704       0.68057248 </v>
    <v>       0.99714648       0.75570704       0.68057248 </v>
    <v>       0.25570704       0.49714648       0.68057248 </v>
    <v>       0.25570704       0.99714648       0.68057248 </v>
    <v>       0.75570704       0.49714648       0.68057248 </v>
    <v>       0.75570704       0.99714648       0.68057248 </v>
    <v>       0.25000000       0.25000000       0.67480871 </v>
    <v>       0.25000000       0.75000000       0.67480871 </v>
    <v>       0.75000000       0.25000000       0.67480871 </v>
    <v>       0.75000000       0.75000000       0.67480871 </v>
    <v>       0.08333333       0.08333333       0.72043888 </v>
    <v>       0.08333333       0.58333333       0.72043888 </v>
    <v>       0.58333333       0.08333333       0.72043888 </v>
    <v>       0.58333333       0.58333333       0.72043888 </v>
   </varray>
  </structure>
  <varray name="forces" >
   <v>       0.00788068       0.00452425       0.07175193 </v>
   <v>       0.00793010       0.00451788       0.07166174 </v>
   <v>       0.00797286       0.00459809       0.07172189 </v>
   <v>       0.00791749       0.00454754       0.07170452 </v>
   <v>       0.00008853      -0.00913806       0.07165201 </v>
   <v>      -0.00001493      -0.00914841       0.07175021 </v>
   <v>       0.00002245      -0.00917171       0.07175233 </v>
   <v>       0.00012400      -0.00912629       0.07171108 </v>
   <v>      -0.00804465       0.00466804       0.07179031 </v>
   <v>      -0.00796925       0.00462719       0.07169260 </v>
   <v>      -0.00792786       0.00453032       0.07169414 </v>
   <v>      -0.00791863       0.00453792       0.07166933 </v>
   <v>      -0.00004733       0.00003198       0.08643129 </v>
   <v>       0.00010236      -0.00010038       0.08634245 </v>
   <v>      -0.00008075       0.00005687       0.08639993 </v>
   <v>      -0.00005783       0.00000612       0.08634984 </v>
   <v>       0.00691876       0.00402965      -0.08002455 </v>
   <v>       0.00693742       0.00398616      -0.07988254 </v>
   <v>       0.00699303       0.00399597      -0.08000433 </v>
   <v>       0.00695657       0.00416323      -0.07993614 </v>
   <v>      -0.00009697      -0.00816375      -0.08001251 </v>
   <v>       0.00012535      -0.00800559      -0.07993205 </v>
   <v>       0.00002790      -0.00798320      -0.07994883 </v>
   <v>       0.00014243      -0.00798040      -0.07989585 </v>
   <v>      -0.00707759       0.00407992      -0.07996453 </v>
   <v>      -0.00731190       0.00412402      -0.07998102 </v>
   <v>      -0.00699146       0.00395806      -0.07991423 </v>
   <v>      -0.00689139       0.00398349      -0.07997349 </v>
   <v>       0.00003400      -0.00009223      -0.05925301 </v>
   <v>       0.00010373      -0.00010807      -0.05926480 </v>
   <v>      -0.00005646      -0.00001619      -0.05924875 </v>
   <v>       0.00007503      -0.00000283      -0.05933675 </v>
   <v>       0.00006414      -0.00011486      -0.00002244 </v>
   <v>       0.00005827       0.00000264       0.00000715 </v>
   <v>       0.00001988      -0.00004931      -0.00000035 </v>
   <v>      -0.00012057      -0.00002810      -0.00030684 </v>
   <v>       0.00021776      -0.00004177      -0.00008335 </v>
   <v>      -0.00002185       0.00000243       0.00000754 </v>
   <v>      -0.00002030      -0.00002321      -0.00000283 </v>
   <v>      -0.00000004      -0.00002686      -0.00000206 </v>
   <v>       0.00005861       0.00005209      -0.00015271 </v>
   <v>       0.00010987       0.00010840      -0.00007792 </v>
   <v>      -0.00005680       0.00009742      -0.00013647 </v>
   <v>      -0.00004631       0.00017967      -0.00000335 </v>
   <v>      -0.00004169      -0.00004036      -0.00012288 </v>
   <v>      -0.00008580      -0.00008168      -0.00006645 </v>
   <v>      -0.00010086       0.00003307      -0.00001036 </v>
   <v>      -0.00013421       0.00001859      -0.00013405 </v>
   <v>       0.00016493       0.00012158       0.00033624 </v>
   <v>       0.00004087       0.00015747      -0.00070522 </v>
   <v>       0.00003127       0.00017271       0.00009207 </v>
   <v>       0.00008954       0.00004950       0.00010549 </v>
   <v>      -0.00019168      -0.00022031      -0.00096172 </v>
   <v>      -0.00009886      -0.00010112       0.00018984 </v>
   <v>      -0.00012956      -0.00012256       0.00002893 </v>
   <v>       0.00001963      -0.00013532       0.00000656 </v>
   <v>       0.00007877       0.00012040       0.00019784 </v>
   <v>      -0.00000142      -0.00005523       0.00011541 </v>
   <v>       0.00013377       0.00000188      -0.00003028 </v>
   <v>      -0.00015840       0.00015561      -0.00012355 </v>
   <v>       0.00015352      -0.00018518      -0.00049274 </v>
   <v>       0.00004044      -0.00005380       0.00003714 </v>
   <v>       0.00011397       0.00018453       0.00018878 </v>
   <v>      -0.00000504      -0.00005462       0.00012341 </v>
   <v>       0.00157759      -0.01209544      -0.01579834 </v>
   <v>       0.00004434      -0.00029722       0.00012202 </v>
   <v>       0.00012837      -0.00007074       0.00002867 </v>
   <v>      -0.00056172       0.00039898      -0.00049511 </v>
   <v>       0.00541478       0.00242369      -0.00535938 </v>
   <v>       0.00009409      -0.00050493      -0.00022095 </v>
   <v>      -0.00082402       0.00031764      -0.00055428 </v>
   <v>      -0.00003209      -0.00006244       0.00000972 </v>
   <v>       0.00004146       0.00022515       0.00042713 </v>
   <v>       0.00012053      -0.00001611      -0.00004245 </v>
   <v>      -0.00066751      -0.00052526      -0.00054604 </v>
   <v>       0.00016189       0.00029456      -0.00025049 </v>
   <v>      -0.00031862       0.00002149      -0.00006022 </v>
   <v>      -0.00008072      -0.00013776      -0.00035001 </v>
   <v>      -0.01627327       0.01028967      -0.02799136 </v>
   <v>       0.00003078       0.00011202       0.00002874 </v>
   <v>      -0.00475457      -0.01104404       0.00117042 </v>
   <v>      -0.00508174      -0.01104713       0.00123263 </v>
   <v>      -0.00066287       0.00040014      -0.00008475 </v>
   <v>      -0.00085053       0.00041380      -0.00020493 </v>
   <v>       0.10063950      -0.00582074       0.10131228 </v>
   <v>       0.00011338      -0.00031274      -0.00025739 </v>
   <v>      -0.00015564       0.00003728      -0.00013102 </v>
   <v>       0.00014096       0.00013760      -0.00019009 </v>
   <v>      -0.00386122       0.00934703       0.00065236 </v>
   <v>      -0.00072500      -0.00024750      -0.00030925 </v>
   <v>      -0.00061652      -0.00024648      -0.00036037 </v>
   <v>      -0.00586963       0.01344970       0.00140896 </v>
   <v>      -0.01929445      -0.00049700       0.00031795 </v>
   <v>      -0.00009690       0.00003728      -0.00028450 </v>
   <v>      -0.02921022      -0.00015955       0.00168703 </v>
   <v>      -0.00004816      -0.00006468      -0.00023712 </v>
   <v>       0.00011460       0.00003591      -0.00087300 </v>
   <v>      -0.00069797       0.00101355      -0.00116076 </v>
   <v>       0.00136777      -0.00907669      -0.01419267 </v>
   <v>      -0.00008557      -0.00032108      -0.00082544 </v>
   <v>      -0.00156323       0.00025131      -0.00124984 </v>
   <v>      -0.00006372      -0.00000728      -0.00089386 </v>
   <v>       0.00414410       0.00102931      -0.00612936 </v>
   <v>      -0.00009894       0.00003895      -0.00146677 </v>
   <v>      -0.00087331      -0.00046922      -0.00078720 </v>
   <v>       0.00014607       0.00044827      -0.00078739 </v>
   <v>       0.00066969      -0.00006059      -0.00001580 </v>
   <v>      -0.00016051       0.00022898      -0.00018068 </v>
   <v>      -0.02247393       0.01434201      -0.03626884 </v>
   <v>       0.00005975       0.00006061      -0.00014690 </v>
   <v>      -0.00042042      -0.00013860      -0.00018558 </v>
   <v>       0.00003839      -0.00003778      -0.00036192 </v>
   <v>       0.00101741       0.00185975       0.00072875 </v>
   <v>      -0.00109060      -0.00275736      -0.00043736 </v>
   <v>       0.00132517      -0.00104461       0.00145235 </v>
   <v>       0.00007542      -0.00020498       0.00160939 </v>
  </varray>
  <varray name="stress" >
   <v>      -2.06102147      -0.00203998      -0.00742432 </v>
   <v>      -0.00203998      -2.06809895       0.00377940 </v>
   <v>      -0.00742432       0.00377942      -2.18209149 </v>
  </varray>
  <energy>
   <i name="e_fr_energy">   -427.46730715 </i>
   <i name="e_wo_entrp">   -427.44076673 </i>
   <i name="e_0_energy">     -0.05308084 </i>
  </energy>
  <time name="totalsc"> 7039.33 7112.62</time>
  <eigenvalues>
   <array>
    <dimension dim="1">band</dimension>
    <dimension dim="2">kpoint</dimension>
    <dimension dim="3">spin</dimension>
    <field>eigene</field>
    <field>occ</field>
    <set>
     <set comment="spin 1">
      <set comment="kpoint 1">
       <r>  -18.6068    1.0000 </r>
       <r>  -18.5943    1.0000 </r>
       <r>  -18.5938    1.0000 </r>
       <r>  -18.5934    1.0000 </r>
       <r>   -9.4532    1.0000 </r>
       <r>   -8.9606    1.0000 </r>
       <r>   -8.1731    1.0000 </r>
       <r>   -7.6013    1.0000 </r>
       <r>   -7.5990    1.0000 </r>
       <r>   -7.5986    1.0000 </r>
       <r>   -7.5776    1.0000 </r>
       <r>   -7.5770    1.0000 </r>
       <r>   -7.5767    1.0000 </r>
       <r>   -7.2208    1.0000 </r>
       <r>   -7.2190    1.0000 </r>
       <r>   -7.2179    1.0000 </r>
       <r>   -7.1994    1.0000 </r>
       <r>   -7.1461    1.0000 </r>
       <r>   -7.1451    1.0000 </r>
       <r>   -7.1441    1.0000 </r>
       <r>   -6.6268    1.0000 </r>
       <r>   -6.6266    1.0000 </r>
       <r>   -6.6257    1.0000 </r>
       <r>   -6.4853    1.0000 </r>
       <r>   -6.4848    1.0000 </r>
       <r>   -6.4835    1.0000 </r>
       <r>   -6.2515    1.0000 </r>
       <r>   -5.9494    1.0000 </r>
       <r>   -5.9480    1.0000 </r>
       <r>   -5.9479    1.0000 </r>
       <r>   -5.7416    1.0000 </r>
       <r>   -5.7414    1.0000 </r>
       <r>   -5.7409    1.0000 </r>
       <r>   -5.6690    1.0000 </r>
       <r>   -5.6247    1.0000 </r>
       <r>   -5.6243    1.0000 </r>
       <r>   -5.4386    1.0000 </r>
       <r>   -5.4099    1.0000 </r>
       <r>   -5.4098    1.0000 </r>
       <r>   -5.4096    1.0000 </r>
       <r>   -5.3416    1.0000 </r>
       <r>   -5.3411    1.0000 </r>
       <r>   -5.3400    1.0000 </r>
       <r>   -5.3242    1.0000 </r>
       <r>   -5.2831    1.0000 </r>
       <r>   -5.2829    1.0000 </r>
       <r>   -5.2148    1.0000 </r>
       <r>   -5.2092    1.0000 </r>
       <r>   -5.2085    1.0000 </r>
       <r>   -5.2082    1.0000 </r>
       <r>   -5.1344    1.0000 </r>
       <r>   -5.1341    1.0000 </r>
       <r>   -5.1233    1.0000 </r>
       <r>   -5.0558    1.0000 </r>
       <r>   -5.0335    1.0000 </r>
       <r>   -5.0332    1.0000 </r>
       <r>   -5.0046    1.0000 </r>
       <r>   -5.0038    1.0000 </r>
       <r>   -5.0026    1.0000 </r>
       <r>   -4.9779    1.0000 </r>
       <r>   -4.9778    1.0000 </r>
       <r>   -4.9774    1.0000 </r>
       <r>   -4.9627    1.0000 </r>
       <r>   -4.9624    1.0000 </r>
       <r>   -4.9565    1.0000 </r>
       <r>   -4.9564    1.0000 </r>
       <r>   -4.9558    1.0000 </r>
       <r>   -4.9357    1.0000 </r>
       <r>   -4.8831    1.0000 </r>
       <r>   -4.8826    1.0000 </r>
       <r>   -4.8819    1.0000 </r>
       <r>   -4.8546    1.0000 </r>
       <r>   -4.8535    1.0000 </r>
       <r>   -4.8534    1.0000 </r>
       <r>   -4.8402    1.0000 </r>
       <r>   -4.8244    1.0000 </r>
       <r>   -4.8243    1.0000 </r>
       <r>   -4.8122    1.0000 </r>
       <r>   -4.8115    1.0000 </r>
       <r>   -4.8113    1.0000 </r>
       <r>   -4.7495    1.0000 </r>
       <r>   -4.7490    1.0000 </r>
       <r>   -4.7485    1.0000 </r>
       <r>   -4.7068    1.0000 </r>
       <r>   -4.7065    1.0000 </r>
       <r>   -4.7060    1.0000 </r>
       <r>   -4.7028    1.0000 </r>
       <r>   -4.6945    1.0000 </r>
       <r>   -4.6942    1.0000 </r>
       <r>   -4.6219    1.0000 </r>
       <r>   -4.6214    1.0000 </r>
       <r>   -4.6203    1.0000 </r>
       <r>   -4.5860    1.0000 </r>
       <r>   -4.5856    1.0000 </r>
       <r>   -4.5853    1.0000 </r>
       <r>   -4.5818    1.0000 </r>
       <r>   -4.5782    1.0000 </r>
       <r>   -4.5780    1.0000 </r>
       <r>   -4.5452    1.0000 </r>
       <r>   -4.5386    1.0000 </r>
       <r>   -4.5384    1.0000 </r>
       <r>   -4.5382    1.0000 </r>
       <r>   -4.5380    1.0000 </r>
       <r>   -4.5379    1.0000 </r>
       <r>   -4.5277    1.0000 </r>
       <r>   -4.5276    1.0000 </r>
       <r>   -4.5276    1.0000 </r>
       <r>   -4.5040    1.0000 </r>
       <r>   -4.5037    1.0000 </r>
       <r>   -4.5032    1.0000 </r>
       <r>   -4.4604    1.0000 </r>
       <r>   -4.4601    1.0000 </r>
       <r>   -4.4599    1.0000 </r>
       <r>   -4.4544    1.0000 </r>
       <r>   -4.4543    1.0000 </r>
       <r>   -4.4543    1.0000 </r>
       <r>   -4.4484    1.0000 </r>
       <r>   -4.4464    1.0000 </r>
       <r>   -4.4450    1.0000 </r>
       <r>   -4.4067    1.0000 </r>
       <r>   -4.4058    1.0000 </r>
       <r>   -4.4046    1.0000 </r>
       <r>   -4.3885    1.0000 </r>
       <r>   -4.3878    1.0000 </r>
       <r>   -4.3518    1.0000 </r>
       <r>   -4.3490    1.0000 </r>
       <r>   -4.3487    1.0000 </r>
       <r>   -4.3369    1.0000 </r>
       <r>   -4.2427    1.0000 </r>
       <r>   -4.2419    1.0000 </r>
       <r>   -4.2296    1.0000 </r>
       <r>   -4.2284    1.0000 </r>
       <r>   -4.2277    1.0000 </r>
       <r>   -4.2198    1.0000 </r>
       <r>   -4.2196    1.0000 </r>
       <r>   -4.2195    1.0000 </r>
       <r>   -4.2180    1.0000 </r>
       <r>   -4.2172    1.0000 </r>
       <r>   -4.2171    1.0000 </r>
       <r>   -4.2141    1.0000 </r>
       <r>   -4.2138    1.0000 </r>
       <r>   -4.2135    1.0000 </r>
       <r>   -4.2111    1.0000 </r>
       <r>   -4.2110    1.0000 </r>
       <r>   -4.2104    1.0000 </r>
       <r>   -4.1798    1.0000 </r>
       <r>   -4.1792    1.0000 </r>
       <r>   -4.1792    1.0000 </r>
       <r>   -4.0972    1.0000 </r>
       <r>   -4.0970    1.0000 </r>
       <r>   -4.0966    1.0000 </r>
       <r>   -4.0788    1.0000 </r>
       <r>   -4.0785    1.0000 </r>
       <r>   -4.0777    1.0000 </r>
       <r>   -4.0764    1.0000 </r>
       <r>   -4.0758    1.0000 </r>
       <r>   -4.0750    1.0000 </r>
       <r>   -4.0566    1.0000 </r>
       <r>   -4.0564    1.0000 </r>
       <r>   -4.0549    1.0000 </r>
       <r>   -4.0449    1.0000 </r>
       <r>   -4.0439    1.0000 </r>
       <r>   -4.0437    1.0000 </r>
       <r>   -4.0166    1.0000 </r>
       <r>   -4.0051    1.0000 </r>
       <r>   -4.0043    1.0000 </r>
       <r>   -4.0039    1.0000 </r>
       <r>   -3.9691    1.0000 </r>
       <r>   -3.9688    1.0000 </r>
       <r>   -3.9381    1.0000 </r>
       <r>   -3.9380    1.0000 </r>
       <r>   -3.9377    1.0000 </r>
       <r>   -3.9292    1.0000 </r>
       <r>   -3.9284    1.0000 </r>
       <r>   -3.9282    1.0000 </r>
       <r>   -3.9090    1.0000 </r>
       <r>   -3.9090    1.0000 </r>
       <r>   -3.9086    1.0000 </r>
       <r>   -3.8794    1.0000 </r>
       <r>   -3.8792    1.0000 </r>
       <r>   -3.8776    1.0000 </r>
       <r>   -3.8769    1.0000 </r>
       <r>   -3.8765    1.0000 </r>
       <r>   -3.8751    1.0000 </r>
       <r>   -3.8325    1.0000 </r>
       <r>   -3.8319    1.0000 </r>
       <r>   -3.8310    1.0000 </r>
       <r>   -3.8296    1.0000 </r>
       <r>   -3.8125    1.0000 </r>
       <r>   -3.8120    1.0000 </r>
       <r>   -3.8118    1.0000 </r>
       <r>   -3.7987    1.0000 </r>
       <r>   -3.7982    1.0000 </r>
       <r>   -3.7979    1.0000 </r>
       <r>   -3.7864    1.0000 </r>
       <r>   -3.7861    1.0000 </r>
       <r>   -3.7857    1.0000 </r>
       <r>   -3.7745    1.0000 </r>
       <r>   -3.7743    1.0000 </r>
       <r>   -3.7741    1.0000 </r>
       <r>   -3.7509    1.0000 </r>
       <r>   -3.7503    1.0000 </r>
       <r>   -3.7502    1.0000 </r>
       <r>   -3.7091    1.0000 </r>
       <r>   -3.7086    1.0000 </r>
       <r>   -3.7083    1.0000 </r>
       <r>   -3.7071    1.0000 </r>
       <r>   -3.7067    1.0000 </r>
       <r>   -3.7063    1.0000 </r>
       <r>   -3.6826    1.0000 </r>
       <r>   -3.6820    1.0000 </r>
       <r>   -3.6817    1.0000 </r>
       <r>   -3.6767    1.0000 </r>
       <r>   -3.6766    1.0000 </r>
       <r>   -3.6764    1.0000 </r>
       <r>   -3.6690    1.0000 </r>
       <r>   -3.6680    1.0000 </r>
       <r>   -3.6407    1.0000 </r>
       <r>   -3.6403    1.0000 </r>
       <r>   -3.6401    1.0000 </r>
       <r>   -3.6176    1.0000 </r>
       <r>   -3.6157    1.0000 </r>
       <r>   -3.6154    1.0000 </r>
       <r>   -3.6150    1.0000 </r>
       <r>   -3.6032    1.0000 </r>
       <r>   -3.6026    1.0000 </r>
       <r>   -3.6020    1.0000 </r>
       <r>   -3.6012    1.0000 </r>
       <r>   -3.6008    1.0000 </r>
       <r>   -3.6005    1.0000 </r>
       <r>   -3.5974    1.0000 </r>
       <r>   -3.5970    1.0000 </r>
       <r>   -3.5962    1.0000 </r>
       <r>   -3.5817    1.0000 </r>
       <r>   -3.5809    1.0000 </r>
       <r>   -3.5805    1.0000 </r>
       <r>   -3.5501    1.0000 </r>
       <r>   -3.5500    1.0000 </r>
       <r>   -3.5494    1.0000 </r>
       <r>   -3.5371    1.0000 </r>
       <r>   -3.5301    1.0000 </r>
       <r>   -3.5114    1.0000 </r>
       <r>   -3.5113    1.0000 </r>
       <r>   -3.4477    1.0000 </r>
       <r>   -3.4475    1.0000 </r>
       <r>   -3.4474    1.0000 </r>
       <r>   -3.4420    1.0000 </r>
       <r>   -3.4343    1.0000 </r>
       <r>   -3.4334    1.0000 </r>
       <r>   -3.4331    1.0000 </r>
       <r>   -3.4279    1.0000 </r>
       <r>   -3.4279    1.0000 </r>
       <r>   -3.4273    1.0000 </r>
       <r>   -3.4188    1.0000 </r>
       <r>   -3.4186    1.0000 </r>
       <r>   -3.4184    1.0000 </r>
       <r>   -3.4178    1.0000 </r>
       <r>   -3.4178    1.0000 </r>
       <r>   -3.4157    1.0000 </r>
       <r>   -3.4156    1.0000 </r>
       <r>   -3.4151    1.0000 </r>
       <r>   -3.4099    1.0000 </r>
       <r>   -3.3987    1.0000 </r>
       <r>   -3.3982    1.0000 </r>
       <r>   -3.3980    1.0000 </r>
       <r>   -3.3864    1.0000 </r>
       <r>   -3.3863    1.0000 </r>
       <r>   -3.3750    1.0000 </r>
       <r>   -3.3634    1.0000 </r>
       <r>   -3.3630    1.0000 </r>
       <r>   -3.3620    1.0000 </r>
       <r>   -3.3498    1.0000 </r>
       <r>   -3.3497    1.0000 </r>
       <r>   -3.3463    1.0000 </r>
       <r>   -3.3458    1.0000 </r>
       <r>   -3.3456    1.0000 </r>
       <r>   -3.3358    1.0000 </r>
       <r>   -3.3354    1.0000 </r>
       <r>   -3.3347    1.0000 </r>
       <r>   -3.3149    1.0000 </r>
       <r>   -3.3148    1.0000 </r>
       <r>   -3.3048    1.0000 </r>
       <r>   -3.3044    1.0000 </r>
       <r>   -3.3039    1.0000 </r>
       <r>   -3.2723    1.0000 </r>
       <r>   -3.2722    1.0000 </r>
       <r>   -3.2720    1.0000 </r>
       <r>   -3.2681    1.0000 </r>
       <r>   -3.2679    1.0000 </r>
       <r>   -3.2590    1.0000 </r>
       <r>   -3.2589    1.0000 </r>
       <r>   -3.2553    1.0000 </r>
[...]
       <r>   -14.5223     0.0000     8.0000 </r>
       <r>   -14.4282     0.0000     8.0000 </r>
       <r>   -14.3340     0.0000     8.0000 </r>
       <r>   -14.2398     0.0000     8.0000 </r>
       <r>   -14.1456     0.0000     8.0000 </r>
       <r>   -14.0514     0.0000     8.0000 </r>
       <r>   -13.9572     0.0000     8.0000 </r>
       <r>   -13.8630     0.0000     8.0000 </r>
       <r>   -13.7688     0.0000     8.0000 </r>
       <r>   -13.6746     0.0000     8.0000 </r>
       <r>   -13.5804     0.0000     8.0000 </r>
       <r>   -13.4863     0.0000     8.0000 </r>
       <r>   -13.3921     0.0000     8.0000 </r>
       <r>   -13.2979     0.0000     8.0000 </r>
       <r>   -13.2037     0.0000     8.0000 </r>
       <r>   -13.1095     0.0000     8.0000 </r>
       <r>   -13.0153     0.0000     8.0000 </r>
       <r>   -12.9211     0.0000     8.0000 </r>
       <r>   -12.8269     0.0000     8.0000 </r>
       <r>   -12.7327     0.0000     8.0000 </r>
       <r>   -12.6385     0.0000     8.0000 </r>
       <r>   -12.5444     0.0000     8.0000 </r>
       <r>   -12.4502     0.0000     8.0000 </r>
       <r>   -12.3560     0.0000     8.0000 </r>
       <r>   -12.2618     0.0000     8.0000 </r>
       <r>   -12.1676     0.0000     8.0000 </r>
       <r>   -12.0734     0.0000     8.0000 </r>
       <r>   -11.9792     0.0000     8.0000 </r>
       <r>   -11.8850     0.0000     8.0000 </r>
       <r>   -11.7908     0.0000     8.0000 </r>
       <r>   -11.6966     0.0000     8.0000 </r>
       <r>   -11.6025     0.0000     8.0000 </r>
       <r>   -11.5083     0.0000     8.0000 </r>
       <r>   -11.4141     0.0000     8.0000 </r>
       <r>   -11.3199     0.0000     8.0000 </r>
       <r>   -11.2257     0.0000     8.0000 </r>
       <r>   -11.1315     0.0000     8.0000 </r>
       <r>   -11.0373     0.0000     8.0000 </r>
       <r>   -10.9431     0.0000     8.0000 </r>
       <r>   -10.8489     0.0000     8.0000 </r>
       <r>   -10.7547     0.0000     8.0000 </r>
       <r>   -10.6606     0.0000     8.0000 </r>
       <r>   -10.5664     0.0000     8.0000 </r>
       <r>   -10.4722     0.0000     8.0000 </r>
       <r>   -10.3780     0.0000     8.0000 </r>
       <r>   -10.2838     0.0000     8.0000 </r>
       <r>   -10.1896     0.0000     8.0000 </r>
       <r>   -10.0954     0.0000     8.0000 </r>
       <r>   -10.0012     0.0000     8.0000 </r>
       <r>    -9.9070     0.0000     8.0000 </r>
       <r>    -9.8128     0.0000     8.0000 </r>
       <r>    -9.7187     0.0000     8.0000 </r>
       <r>    -9.6245     0.0000     8.0000 </r>
       <r>    -9.5303     0.0194     8.0018 </r>
       <r>    -9.4361     0.9003     8.0866 </r>
       <r>    -9.3419     3.2815     8.3957 </r>
       <r>    -9.2477     5.0051     8.8671 </r>
       <r>    -9.1535     0.2796     8.8935 </r>
       <r>    -9.0593     5.8626     9.4457 </r>
       <r>    -8.9651     6.2556    10.0349 </r>
       <r>    -8.8710     6.4308    10.6406 </r>
       <r>    -8.7768     6.1824    11.2229 </r>
       <r>    -8.6826     0.5834    11.2779 </r>
       <r>    -8.5884    15.5383    12.7414 </r>
       <r>    -8.4942    11.2334    13.7995 </r>
       <r>    -8.4000     6.2777    14.3908 </r>
       <r>    -8.3058     6.1860    14.9735 </r>
       <r>    -8.2116     0.8021    15.0490 </r>
       <r>    -8.1174    12.8896    16.2631 </r>
       <r>    -8.0232    14.5851    17.6368 </r>
       <r>    -7.9291    13.2824    18.8879 </r>
       <r>    -7.8349    19.5326    20.7277 </r>
       <r>    -7.7407     6.8856    21.3762 </r>
       <r>    -7.6465     6.0425    21.9454 </r>
       <r>    -7.5523    13.0579    23.1753 </r>
       <r>    -7.4581    15.7304    24.6570 </r>
       <r>    -7.3639    16.4392    26.2054 </r>
       <r>    -7.2697     8.9263    27.0461 </r>
       <r>    -7.1755    20.5085    28.9778 </r>
       <r>    -7.0813    16.3201    30.5150 </r>
       <r>    -6.9872    13.2224    31.7604 </r>
       <r>    -6.8930    16.6072    33.3247 </r>
       <r>    -6.7988    31.7674    36.3168 </r>
       <r>    -6.7046    15.2881    37.7568 </r>
       <r>    -6.6104    18.3886    39.4888 </r>
       <r>    -6.5162    13.4410    40.7548 </r>
       <r>    -6.4220    24.4578    43.0585 </r>
       <r>    -6.3278    23.6300    45.2842 </r>
       <r>    -6.2336    18.6472    47.0406 </r>
       <r>    -6.1394    46.6644    51.4359 </r>
       <r>    -6.0453    21.0324    53.4169 </r>
       <r>    -5.9511    45.8813    57.7385 </r>
       <r>    -5.8569    21.2617    59.7411 </r>
       <r>    -5.7627    20.5748    61.6791 </r>
       <r>    -5.6685    59.6564    67.2981 </r>
       <r>    -5.5743    87.0217    75.4946 </r>
       <r>    -5.4801    74.0744    82.4717 </r>
       <r>    -5.3859    60.5696    88.1767 </r>
       <r>    -5.2917    95.3370    97.1565 </r>
       <r>    -5.1975    89.0816   105.5471 </r>
       <r>    -5.1034   108.1081   115.7298 </r>
       <r>    -5.0092   119.3548   126.9718 </r>
       <r>    -4.9150   145.3110   140.6586 </r>
       <r>    -4.8208   127.5488   152.6724 </r>
       <r>    -4.7266   126.5321   164.5904 </r>
       <r>    -4.6324   166.4205   180.2656 </r>
       <r>    -4.5382   204.4613   199.5237 </r>
       <r>    -4.4440   241.1356   222.2363 </r>
       <r>    -4.3498   284.4269   249.0264 </r>
       <r>    -4.2556   253.7348   272.9256 </r>
       <r>    -4.1615   219.7107   293.6201 </r>
       <r>    -4.0673   206.6122   313.0809 </r>
       <r>    -3.9731   219.4069   333.7468 </r>
       <r>    -3.8789   272.9324   359.4543 </r>
       <r>    -3.7847   278.8101   385.7154 </r>
       <r>    -3.6905   321.7645   416.0223 </r>
       <r>    -3.5963   318.5288   446.0245 </r>
       <r>    -3.5021   325.0005   476.6362 </r>
       <r>    -3.4079   392.8907   513.6426 </r>
       <r>    -3.3137   477.6469   558.6320 </r>
       <r>    -3.2196   505.8708   606.2799 </r>
       <r>    -3.1254   438.1512   647.5493 </r>
       <r>    -3.0312   452.0212   690.1251 </r>
       <r>    -2.9370   325.7001   720.8028 </r>
       <r>    -2.8428   362.6945   754.9649 </r>
       <r>    -2.7486   347.1707   787.6649 </r>
       <r>    -2.6544   410.3871   826.3192 </r>
       <r>    -2.5602   409.4312   864.8834 </r>
       <r>    -2.4660   389.2987   901.5514 </r>
       <r>    -2.3719   429.5298   942.0088 </r>
       <r>    -2.2777   419.6797   981.5383 </r>
       <r>    -2.1835   440.6945  1023.0473 </r>
       <r>    -2.0893   530.3355  1072.9995 </r>
       <r>    -1.9951   616.0716  1131.0272 </r>
       <r>    -1.9009   434.3181  1171.9355 </r>
       <r>    -1.8067   161.9501  1187.1896 </r>
       <r>    -1.7125    69.4187  1193.7281 </r>
       <r>    -1.6183    52.3376  1198.6578 </r>
       <r>    -1.5241    58.5370  1204.1714 </r>
       <r>    -1.4300    59.4447  1209.7705 </r>
       <r>    -1.3358    89.5425  1218.2045 </r>
       <r>    -1.2416    59.3997  1223.7993 </r>
       <r>    -1.1474    35.8356  1227.1747 </r>
       <r>    -1.0532    11.6047  1228.2677 </r>
       <r>    -0.9590    47.7961  1232.7696 </r>
       <r>    -0.8648    38.0819  1236.3566 </r>
       <r>    -0.7706    43.8746  1240.4891 </r>
       <r>    -0.6764    47.0915  1244.9246 </r>
       <r>    -0.5822    58.0534  1250.3927 </r>
       <r>    -0.4881    20.2589  1252.3009 </r>
       <r>    -0.3939    34.9497  1255.5928 </r>
       <r>    -0.2997    37.4970  1259.1246 </r>
       <r>    -0.2055    41.1772  1263.0031 </r>
       <r>    -0.1113    23.6462  1265.2303 </r>
       <r>    -0.0171    35.1066  1268.5370 </r>
       <r>     0.0771    48.7298  1273.1268 </r>
       <r>     0.1713    42.4206  1277.1224 </r>
       <r>     0.2655    13.0345  1278.3501 </r>
       <r>     0.3597    25.5299  1280.7548 </r>
       <r>     0.4538    43.4202  1284.8445 </r>
       <r>     0.5480    33.9928  1288.0463 </r>
       <r>     0.6422    28.5340  1290.7339 </r>
       <r>     0.7364    54.3637  1295.8544 </r>
       <r>     0.8306    35.2653  1299.1761 </r>
       <r>     0.9248    31.3935  1302.1330 </r>
       <r>     1.0190    29.1344  1304.8772 </r>
       <r>     1.1132    29.0822  1307.6164 </r>
       <r>     1.2074    47.1722  1312.0596 </r>
       <r>     1.3016    19.4910  1313.8954 </r>
       <r>     1.3957    20.3741  1315.8145 </r>
       <r>     1.4899    37.1516  1319.3138 </r>
       <r>     1.5841    32.1483  1322.3418 </r>
       <r>     1.6783    27.8778  1324.9676 </r>
       <r>     1.7725    20.3838  1326.8876 </r>
       <r>     1.8667    41.5063  1330.7970 </r>
       <r>     1.9609    37.1610  1334.2972 </r>
       <r>     2.0551    39.3440  1338.0030 </r>
       <r>     2.1493    24.7033  1340.3298 </r>
       <r>     2.2435    37.9043  1343.9000 </r>
       <r>     2.3376    24.6138  1346.2184 </r>
       <r>     2.4318    22.4742  1348.3352 </r>
       <r>     2.5260    14.7242  1349.7221 </r>
       <r>     2.6202    11.7887  1350.8325 </r>
       <r>     2.7144    19.7004  1352.6881 </r>
       <r>     2.8086    32.6314  1355.7616 </r>
       <r>     2.9028    28.0924  1358.4076 </r>
       <r>     2.9970    27.0710  1360.9574 </r>
       <r>     3.0912    19.4912  1362.7933 </r>
       <r>     3.1853    23.3936  1364.9967 </r>
       <r>     3.2795    21.0626  1366.9806 </r>
       <r>     3.3737     8.7556  1367.8053 </r>
       <r>     3.4679    30.6614  1370.6933 </r>
       <r>     3.5621    31.9297  1373.7008 </r>
       <r>     3.6563    27.8173  1376.3209 </r>
       <r>     3.7505     7.1107  1376.9906 </r>
       <r>     3.8447    21.7697  1379.0411 </r>
       <r>     3.9389    44.3828  1383.2215 </r>
       <r>     4.0331    32.5585  1386.2882 </r>
       <r>     4.1272    42.0857  1390.2523 </r>
       <r>     4.2214    50.8692  1395.0436 </r>
       <r>     4.3156    35.2762  1398.3663 </r>
       <r>     4.4098    18.4534  1400.1044 </r>
       <r>     4.5040    23.0820  1402.2785 </r>
       <r>     4.5982    31.6549  1405.2601 </r>
       <r>     4.6924    37.9669  1408.8362 </r>
       <r>     4.7866    41.0727  1412.7048 </r>
       <r>     4.8808    47.7229  1417.1998 </r>
       <r>     4.9750    38.0863  1420.7871 </r>
       <r>     5.0691    40.2297  1424.5764 </r>
       <r>     5.1633    37.1241  1428.0731 </r>
       <r>     5.2575    28.8154  1430.7872 </r>
       <r>     5.3517    59.3964  1436.3817 </r>
       <r>     5.4459    37.2521  1439.8905 </r>
       <r>     5.5401    54.1734  1444.9931 </r>
       <r>     5.6343    33.9401  1448.1899 </r>
       <r>     5.7285    34.3740  1451.4276 </r>
       <r>     5.8227    33.6502  1454.5971 </r>
       <r>     5.9169    33.2230  1457.7264 </r>
       <r>     6.0110    61.5184  1463.5208 </r>
       <r>     6.1052    54.3542  1468.6404 </r>
       <r>     6.1994    44.4789  1472.8299 </r>
       <r>     6.2936    40.4695  1476.6417 </r>
       <r>     6.3878    36.6247  1480.0913 </r>
       <r>     6.4820    51.1203  1484.9064 </r>
       <r>     6.5762    42.7755  1488.9354 </r>
       <r>     6.6704    35.2654  1492.2570 </r>
       <r>     6.7646    37.4585  1495.7852 </r>
       <r>     6.8588    59.0813  1501.3501 </r>
       <r>     6.9529    48.9401  1505.9597 </r>
       <r>     7.0471    36.6986  1509.4164 </r>
       <r>     7.1413    26.5250  1511.9148 </r>
       <r>     7.2355     0.9048  1512.0000 </r>
       <r>     7.3297     0.0001  1512.0000 </r>
       <r>     7.4239     0.0000  1512.0000 </r>
       <r>     7.5181     0.0000  1512.0000 </r>
       <r>     7.6123     0.0000  1512.0000 </r>
       <r>     7.7065     0.0000  1512.0000 </r>
       <r>     7.8007     0.0000  1512.0000 </r>
       <r>     7.8948     0.0000  1512.0000 </r>
       <r>     7.9890     0.0000  1512.0000 </r>
       <r>     8.0832     0.0000  1512.0000 </r>
       <r>     8.1774     0.0000  1512.0000 </r>
       <r>     8.2716     0.0000  1512.0000 </r>
       <r>     8.3658     0.0000  1512.0000 </r>
      </set>
     </set>
    </array>
   </total>
  </dos>
 </calculation>
 <structure name="finalpos" >
  <crystal>
   <varray name="basis" >
    <v>      10.28518105       0.00000000       0.00000000 </v>
    <v>       5.14259052       8.90722807       0.00000000 </v>
    <v>       0.00000000       0.00000000      27.79016876 </v>
   </varray>
   <i name="volume">   2545.92553775 </i>
   <varray name="rec_basis" >
    <v>       0.09722726      -0.05613419       0.00000000 </v>
    <v>       0.00000000       0.11226837       0.00000000 </v>
    <v>       0.00000000       0.00000000       0.03598395 </v>
   </varray>
  </crystal>
  <varray name="positions" >
   <v>       0.00000000       0.00000000       0.22663990 </v>
   <v>       0.00000000       0.50000000       0.22663990 </v>
   <v>       0.50000000       0.00000000       0.22663990 </v>
   <v>       0.50000000       0.50000000       0.22663990 </v>
   <v>       0.00000000       0.25000000       0.22663990 </v>
   <v>       0.00000000       0.75000000       0.22663990 </v>
   <v>       0.50000000       0.25000000       0.22663990 </v>
   <v>       0.50000000       0.75000000       0.22663990 </v>
   <v>       0.25000000       0.00000000       0.22663990 </v>
   <v>       0.25000000       0.50000000       0.22663990 </v>
   <v>       0.75000000       0.00000000       0.22663990 </v>
   <v>       0.75000000       0.50000000       0.22663990 </v>
   <v>       0.25000000       0.25000000       0.22663990 </v>
   <v>       0.25000000       0.75000000       0.22663990 </v>
   <v>       0.75000000       0.25000000       0.22663990 </v>
   <v>       0.75000000       0.75000000       0.22663990 </v>
   <v>       0.16666666       0.16666666       0.30218653 </v>
   <v>       0.16666666       0.66666666       0.30218653 </v>
   <v>       0.66666666       0.16666666       0.30218653 </v>
   <v>       0.66666666       0.66666666       0.30218653 </v>
   <v>       0.16666666       0.41666666       0.30218653 </v>
   <v>       0.16666666       0.91666666       0.30218653 </v>
   <v>       0.66666666       0.41666666       0.30218653 </v>
   <v>       0.66666666       0.91666666       0.30218653 </v>
   <v>       0.41666666       0.16666666       0.30218653 </v>
   <v>       0.41666666       0.66666666       0.30218653 </v>
   <v>       0.91666666       0.16666666       0.30218653 </v>
   <v>       0.91666666       0.66666666       0.30218653 </v>
   <v>       0.41666666       0.41666666       0.30218653 </v>
   <v>       0.41666666       0.91666666       0.30218653 </v>
   <v>       0.91666666       0.41666666       0.30218653 </v>
   <v>       0.91666666       0.91666666       0.30218653 </v>
   <v>       0.08333333       0.08333333       0.37716320 </v>
   <v>       0.08333333       0.58333333       0.37716320 </v>
   <v>       0.58333333       0.08333333       0.37716320 </v>
   <v>       0.58333333       0.58333333       0.37716320 </v>
   <v>       0.08351614       0.33324190       0.37729758 </v>
   <v>       0.08351614       0.83324190       0.37729758 </v>
   <v>       0.58351614       0.33324190       0.37729758 </v>
   <v>       0.58351614       0.83324190       0.37729758 </v>
   <v>       0.33324190       0.08351614       0.37729758 </v>
   <v>       0.33324190       0.58351614       0.37729758 </v>
   <v>       0.83324190       0.08351614       0.37729758 </v>
   <v>       0.83324190       0.58351614       0.37729758 </v>
   <v>       0.33324190       0.33324190       0.37729758 </v>
   <v>       0.33324190       0.83324190       0.37729758 </v>
   <v>       0.83324190       0.33324190       0.37729758 </v>
   <v>       0.83324190       0.83324190       0.37729758 </v>
   <v>       0.00012997       0.00012997       0.45242342 </v>
   <v>       0.00012997       0.50012997       0.45242342 </v>
   <v>       0.50012997       0.00012997       0.45242342 </v>
   <v>       0.50012997       0.50012997       0.45242342 </v>
   <v>       0.00012997       0.24974005       0.45242342 </v>
   <v>       0.00012997       0.74974005       0.45242342 </v>
   <v>       0.50012997       0.24974005       0.45242342 </v>
   <v>       0.50012997       0.74974005       0.45242342 </v>
   <v>       0.24974005       0.00012997       0.45242342 </v>
   <v>       0.24974005       0.50012997       0.45242342 </v>
   <v>       0.74974005       0.00012997       0.45242342 </v>
   <v>       0.74974005       0.50012997       0.45242342 </v>
   <v>       0.25000000       0.25000000       0.45288750 </v>
   <v>       0.25000000       0.75000000       0.45288750 </v>
   <v>       0.75000000       0.25000000       0.45288750 </v>
   <v>       0.75000000       0.75000000       0.45288750 </v>
   <v>       0.16660598       0.16660598       0.52813907 </v>
   <v>       0.16660598       0.66660598       0.52813907 </v>
   <v>       0.66660598       0.16660598       0.52813907 </v>
   <v>       0.66660598       0.66660598       0.52813907 </v>
   <v>       0.16660598       0.41678801       0.52813907 </v>
   <v>       0.16660598       0.91678801       0.52813907 </v>
   <v>       0.66660598       0.41678801       0.52813907 </v>
   <v>       0.66660598       0.91678801       0.52813907 </v>
   <v>       0.41678801       0.16660598       0.52813907 </v>
   <v>       0.41678801       0.66660598       0.52813907 </v>
   <v>       0.91678801       0.16660598       0.52813907 </v>
   <v>       0.91678801       0.66660598       0.52813907 </v>
   <v>       0.41666666       0.41666666       0.52741939 </v>
   <v>       0.41666666       0.91666666       0.52741939 </v>
   <v>       0.91666666       0.41666666       0.52741939 </v>
   <v>       0.91666666       0.91666666       0.52741939 </v>
   <v>       0.08333333       0.08333333       0.60253339 </v>
   <v>       0.08333333       0.58333333       0.60253339 </v>
   <v>       0.58333333       0.08333333       0.60253339 </v>
   <v>       0.58333333       0.58333333       0.60253339 </v>
   <v>       0.07993435       0.33434529       0.60269575 </v>
   <v>       0.08130935       0.83434529       0.60320464 </v>
   <v>       0.58130935       0.33434529       0.60320464 </v>
   <v>       0.58130935       0.83434529       0.60320464 </v>
   <v>       0.33434529       0.08130935       0.60320464 </v>
   <v>       0.33434529       0.58130935       0.60320464 </v>
   <v>       0.83434529       0.08130935       0.60320464 </v>
   <v>       0.83434529       0.58130935       0.60320464 </v>
   <v>       0.33434529       0.33434529       0.60320464 </v>
   <v>       0.33434529       0.83434529       0.60320464 </v>
   <v>       0.83434529       0.33434529       0.60320464 </v>
   <v>       0.83434529       0.83434529       0.60320464 </v>
   <v>       0.49714648       0.49714648       0.68057248 </v>
   <v>       0.49714648       0.99714648       0.68057248 </v>
   <v>       0.99714648       0.49714648       0.68057248 </v>
   <v>       0.99714648       0.99714648       0.68057248 </v>
   <v>       0.49714648       0.25570704       0.68057248 </v>
   <v>       0.49714648       0.75570704       0.68057248 </v>
   <v>       0.99714648       0.25570704       0.68057248 </v>
   <v>       0.99714648       0.75570704       0.68057248 </v>
   <v>       0.25570704       0.49714648       0.68057248 </v>
   <v>       0.25570704       0.99714648       0.68057248 </v>
   <v>       0.75570704       0.49714648       0.68057248 </v>
   <v>       0.75570704       0.99714648       0.68057248 </v>
   <v>       0.25000000       0.25000000       0.67480871 </v>
   <v>       0.25000000       0.75000000       0.67480871 </v>
   <v>       0.75000000       0.25000000       0.67480871 </v>
   <v>       0.75000000       0.75000000       0.67480871 </v>
   <v>       0.08333333       0.08333333       0.72043888 </v>
   <v>       0.08333333       0.58333333       0.72043888 </v>
   <v>       0.58333333       0.08333333       0.72043888 </v>
   <v>       0.58333333       0.58333333       0.72043888 </v>
  </varray>
 </structure>
</modeling>
