<?xml version="1.0" encoding="ISO-8859-1"?>
<modeling>
 <generator>
  <i name="program" type="string">vasp </i>
  <i name="version" type="string">5.4.4.18Apr17-6-g9f103f2a35  </i>
  <i name="subversion" type="string">(build Feb 09 2021 16:27:36) complex            parallel </i>
  <i name="platform" type="string">IFC15_impi </i>
  <i name="date" type="string">2021 04 29 </i>
  <i name="time" type="string">03:23:23 </i>
 </generator>
 <incar>
  <i type="int" name="ISTART">     0</i>
  <i type="string" name="PREC">a</i>
  <i type="logical" name="ADDGRID"> T  </i>
  <i type="int" name="NELM">   300</i>
  <i type="int" name="NELMIN">     5</i>
  <i type="int" name="IBRION">    -1</i>
  <i name="EDIFF">      0.00000100</i>
  <i name="ENCUT">    500.00000000</i>
  <i type="logical" name="LREAL"> F  </i>
  <i type="int" name="ISMEAR">     0</i>
  <i name="SIGMA">      0.05000000</i>
  <i type="logical" name="LWAVE"> F  </i>
  <i type="logical" name="LCHARG"> F  </i>
  <v type="int" name="KPOINT_BSE">    -1     0     0     0</v>
  <i type="int" name="NELM">   300</i>
 </incar>
 <structure name="primitive_cell" >
  <crystal>
   <varray name="basis" >
    <v>      10.28518105       0.00000000       0.00000000 </v>
    <v>       5.14259052       8.90722807       0.00000000 </v>
    <v>       0.00000000       0.00000000      27.79016876 </v>
   </varray>
   <i name="volume">   2545.92553775 </i>
   <varray name="rec_basis" >
    <v>       0.09722726      -0.05613419       0.00000000 </v>
    <v>       0.00000000       0.11226837       0.00000000 </v>
    <v>       0.00000000       0.00000000       0.03598395 </v>
   </varray>
  </crystal>
  <varray name="positions" >
   <v>       0.00000000       0.00000000       0.22663990 </v>
   <v>       0.16666666      -0.08333334       0.30218653 </v>
   <v>      -0.08333334       0.16666666       0.30218653 </v>
   <v>       0.25000000       0.00000000       0.22663990 </v>
   <v>       0.00000000      -0.25000000       0.22663990 </v>
   <v>       0.25000000      -0.25000000       0.22663990 </v>
   <v>      -0.25000000       0.25000000       0.22663990 </v>
   <v>       0.00000000       0.25000000       0.22663990 </v>
   <v>      -0.25000000       0.00000000       0.22663990 </v>
   <v>      -0.08333334      -0.08333334       0.30218653 </v>
   <v>       0.16666666       0.16666666       0.30218653 </v>
   <v>       0.16666666      -0.33333334       0.30218653 </v>
   <v>      -0.33333334       0.16666666       0.30218653 </v>
   <v>       0.08333333       0.08333333       0.37716320 </v>
   <v>       0.08351614      -0.16675810       0.37729758 </v>
   <v>      -0.16675810       0.08351614       0.37729758 </v>
   <v>       0.41666666      -0.08333334       0.30218653 </v>
   <v>      -0.08333334       0.41666666       0.30218653 </v>
   <v>      -0.33333334       0.41666666       0.30218653 </v>
   <v>       0.41666666      -0.33333334       0.30218653 </v>
   <v>      -0.50000000       0.25000000       0.22663990 </v>
   <v>       0.25000000       0.25000000       0.22663990 </v>
   <v>       0.25000000      -0.50000000       0.22663990 </v>
   <v>      -0.25000000      -0.50000000       0.22663990 </v>
   <v>      -0.25000000      -0.25000000       0.22663990 </v>
   <v>      -0.50000000      -0.25000000       0.22663990 </v>
   <v>      -0.08333334      -0.33333334       0.30218653 </v>
   <v>      -0.33333334      -0.08333334       0.30218653 </v>
   <v>       0.33324190      -0.16675810       0.37729758 </v>
   <v>      -0.16675810       0.33324190       0.37729758 </v>
   <v>      -0.16675810      -0.16675810       0.37729758 </v>
   <v>       0.00000000      -0.50000000       0.22663990 </v>
   <v>      -0.50000000      -0.50000000       0.22663990 </v>
   <v>      -0.50000000       0.00000000       0.22663990 </v>
   <v>      -0.41666667       0.08333333       0.37716320 </v>
   <v>       0.08333333      -0.41666667       0.37716320 </v>
   <v>       0.33324190      -0.41648386       0.37729758 </v>
   <v>      -0.41648386       0.33324190       0.37729758 </v>
   <v>       0.33324190       0.08351614       0.37729758 </v>
   <v>       0.08351614       0.33324190       0.37729758 </v>
   <v>       0.16666666       0.41666666       0.30218653 </v>
   <v>       0.41666666       0.16666666       0.30218653 </v>
   <v>       0.41666666       0.41666666       0.30218653 </v>
   <v>       0.00012997       0.00012997       0.45242342 </v>
   <v>      -0.33333334      -0.33333334       0.30218653 </v>
   <v>       0.00012997       0.24974005       0.45242342 </v>
   <v>       0.24974005       0.00012997       0.45242342 </v>
   <v>      -0.25025995       0.00012997       0.45242342 </v>
   <v>       0.00012997      -0.25025995       0.45242342 </v>
   <v>       0.25000000      -0.25000000       0.45288750 </v>
   <v>      -0.25000000       0.25000000       0.45288750 </v>
   <v>      -0.41666667      -0.41666667       0.37716320 </v>
   <v>      -0.41648386      -0.16675810       0.37729758 </v>
   <v>      -0.16675810      -0.41648386       0.37729758 </v>
   <v>       0.33324190       0.33324190       0.37729758 </v>
   <v>       0.24974005      -0.49987003       0.45242342 </v>
   <v>      -0.49987003       0.24974005       0.45242342 </v>
   <v>      -0.49987003      -0.25025995       0.45242342 </v>
   <v>      -0.25025995      -0.49987003       0.45242342 </v>
   <v>       0.25000000       0.25000000       0.45288750 </v>
   <v>      -0.25000000      -0.25000000       0.45288750 </v>
   <v>       0.00012997      -0.49987003       0.45242342 </v>
   <v>      -0.49987003       0.00012997       0.45242342 </v>
   <v>      -0.49987003      -0.49987003       0.45242342 </v>
   <v>      -0.08333334      -0.08333334      -0.47258061 </v>
   <v>      -0.08321199       0.16660598      -0.47186093 </v>
   <v>       0.16660598      -0.08321199      -0.47186093 </v>
   <v>       0.16660598       0.16660598      -0.47186093 </v>
   <v>      -0.33339402       0.16660598      -0.47186093 </v>
   <v>       0.16660598      -0.33339402      -0.47186093 </v>
   <v>       0.41666666      -0.08333334      -0.47258061 </v>
   <v>      -0.08333334       0.41666666      -0.47258061 </v>
   <v>      -0.33339402      -0.08321199      -0.47186093 </v>
   <v>      -0.08321199      -0.33339402      -0.47186093 </v>
   <v>      -0.33339402       0.41678801      -0.47186093 </v>
   <v>       0.41678801      -0.33339402      -0.47186093 </v>
   <v>       0.41666666       0.41666666      -0.47258061 </v>
   <v>       0.16660598       0.41678801      -0.47186093 </v>
   <v>       0.41678801       0.16660598      -0.47186093 </v>
   <v>      -0.33339402      -0.33339402      -0.47186093 </v>
   <v>       0.08333333       0.08333333      -0.39746661 </v>
   <v>      -0.16565471       0.08130935      -0.39679536 </v>
   <v>       0.08130935      -0.16565471      -0.39679536 </v>
   <v>      -0.16565471      -0.16565471      -0.39679536 </v>
   <v>      -0.16565471       0.33434529      -0.39679536 </v>
   <v>       0.33434529      -0.16565471      -0.39679536 </v>
   <v>      -0.41666667       0.08333333      -0.39746661 </v>
   <v>       0.08333333      -0.41666667      -0.39746661 </v>
   <v>       0.08130935       0.33434529      -0.39679536 </v>
   <v>       0.33434529       0.08130935      -0.39679536 </v>
   <v>       0.33434529      -0.41869065      -0.39679536 </v>
   <v>      -0.41869065       0.33434529      -0.39679536 </v>
   <v>      -0.41666667      -0.41666667      -0.39746661 </v>
   <v>      -0.41869065      -0.16565471      -0.39679536 </v>
   <v>      -0.16565471      -0.41869065      -0.39679536 </v>
   <v>       0.33434529       0.33434529      -0.39679536 </v>
   <v>      -0.00285352      -0.00285352      -0.31942752 </v>
   <v>       0.25000000      -0.25000000      -0.32519129 </v>
   <v>      -0.25000000       0.25000000      -0.32519129 </v>
   <v>      -0.24429296      -0.00285352      -0.31942752 </v>
   <v>      -0.00285352      -0.24429296      -0.31942752 </v>
   <v>      -0.00285352       0.25570704      -0.31942752 </v>
   <v>       0.25570704      -0.00285352      -0.31942752 </v>
   <v>       0.25000000       0.25000000      -0.32519129 </v>
   <v>      -0.25000000      -0.25000000      -0.32519129 </v>
   <v>       0.49714648      -0.24429296      -0.31942752 </v>
   <v>      -0.24429296       0.49714648      -0.31942752 </v>
   <v>       0.25570704       0.49714648      -0.31942752 </v>
   <v>       0.49714648       0.25570704      -0.31942752 </v>
   <v>      -0.00285352       0.49714648      -0.31942752 </v>
   <v>       0.49714648      -0.00285352      -0.31942752 </v>
   <v>       0.49852148       0.49714648      -0.31891863 </v>
   <v>       0.08333333       0.08333333      -0.27956112 </v>
   <v>      -0.41666667       0.08333333      -0.27956112 </v>
   <v>       0.08333333      -0.41666667      -0.27956112 </v>
   <v>      -0.41666667      -0.41666667      -0.27956112 </v>
  </varray>
 </structure>
 <varray name="primitive_index" >
  <v type="int" >        1 </v>
  <v type="int" >       22 </v>
  <v type="int" >       27 </v>
  <v type="int" >        9 </v>
  <v type="int" >        6 </v>
  <v type="int" >       14 </v>
  <v type="int" >       15 </v>
  <v type="int" >        5 </v>
  <v type="int" >       11 </v>
  <v type="int" >       32 </v>
  <v type="int" >       17 </v>
  <v type="int" >       18 </v>
  <v type="int" >       19 </v>
  <v type="int" >       33 </v>
  <v type="int" >       38 </v>
  <v type="int" >       43 </v>
  <v type="int" >       30 </v>
  <v type="int" >       31 </v>
  <v type="int" >       23 </v>
  <v type="int" >       26 </v>
  <v type="int" >        7 </v>
  <v type="int" >       13 </v>
  <v type="int" >       10 </v>
  <v type="int" >       12 </v>
  <v type="int" >       16 </v>
  <v type="int" >        8 </v>
  <v type="int" >       28 </v>
  <v type="int" >       24 </v>
  <v type="int" >       46 </v>
  <v type="int" >       47 </v>
  <v type="int" >       48 </v>
  <v type="int" >        2 </v>
  <v type="int" >        4 </v>
  <v type="int" >        3 </v>
  <v type="int" >       35 </v>
  <v type="int" >       34 </v>
  <v type="int" >       42 </v>
  <v type="int" >       39 </v>
  <v type="int" >       41 </v>
  <v type="int" >       37 </v>
  <v type="int" >       21 </v>
  <v type="int" >       25 </v>
  <v type="int" >       29 </v>
  <v type="int" >       49 </v>
  <v type="int" >       20 </v>
  <v type="int" >       53 </v>
  <v type="int" >       57 </v>
  <v type="int" >       59 </v>
  <v type="int" >       54 </v>
  <v type="int" >       62 </v>
  <v type="int" >       63 </v>
  <v type="int" >       36 </v>
  <v type="int" >       40 </v>
  <v type="int" >       44 </v>
  <v type="int" >       45 </v>
  <v type="int" >       58 </v>
  <v type="int" >       55 </v>
  <v type="int" >       56 </v>
  <v type="int" >       60 </v>
  <v type="int" >       61 </v>
  <v type="int" >       64 </v>
  <v type="int" >       50 </v>
  <v type="int" >       51 </v>
  <v type="int" >       52 </v>
  <v type="int" >       80 </v>
  <v type="int" >       75 </v>
  <v type="int" >       70 </v>
  <v type="int" >       65 </v>
  <v type="int" >       67 </v>
  <v type="int" >       66 </v>
  <v type="int" >       78 </v>
  <v type="int" >       79 </v>
  <v type="int" >       72 </v>
  <v type="int" >       76 </v>
  <v type="int" >       71 </v>
  <v type="int" >       74 </v>
  <v type="int" >       77 </v>
  <v type="int" >       69 </v>
  <v type="int" >       73 </v>
  <v type="int" >       68 </v>
  <v type="int" >       81 </v>
  <v type="int" >       91 </v>
  <v type="int" >       86 </v>
  <v type="int" >       96 </v>
  <v type="int" >       95 </v>
  <v type="int" >       94 </v>
  <v type="int" >       83 </v>
  <v type="int" >       82 </v>
  <v type="int" >       85 </v>
  <v type="int" >       89 </v>
  <v type="int" >       90 </v>
  <v type="int" >       87 </v>
  <v type="int" >       84 </v>
  <v type="int" >       88 </v>
  <v type="int" >       92 </v>
  <v type="int" >       93 </v>
  <v type="int" >      100 </v>
  <v type="int" >      110 </v>
  <v type="int" >      111 </v>
  <v type="int" >      108 </v>
  <v type="int" >      104 </v>
  <v type="int" >      103 </v>
  <v type="int" >      106 </v>
  <v type="int" >      109 </v>
  <v type="int" >      112 </v>
  <v type="int" >      102 </v>
  <v type="int" >      107 </v>
  <v type="int" >      105 </v>
  <v type="int" >      101 </v>
  <v type="int" >       99 </v>
  <v type="int" >       98 </v>
  <v type="int" >       97 </v>
  <v type="int" >      113 </v>
  <v type="int" >      115 </v>
  <v type="int" >      114 </v>
  <v type="int" >      116 </v>
 </varray>
 <kpoints>
  <generation param="Gamma">
   <v type="int" name="divisions">       4        4        1 </v>
   <v name="usershift">      0.00000000       0.00000000       0.00000000 </v>
   <v name="genvec1">      0.25000000      -0.00000000       0.00000000 </v>
   <v name="genvec2">      0.00000000       0.25000000       0.00000000 </v>
   <v name="genvec3">      0.00000000       0.00000000       1.00000000 </v>
   <v name="shift">      0.00000000       0.00000000       0.00000000 </v>
  </generation>
  <varray name="kpointlist" >
   <v>       0.00000000       0.00000000       0.00000000 </v>
   <v>       0.25000000      -0.00000000       0.00000000 </v>
   <v>       0.50000000      -0.00000000       0.00000000 </v>
   <v>       0.00000000       0.25000000       0.00000000 </v>
   <v>       0.25000000       0.25000000       0.00000000 </v>
   <v>       0.50000000       0.25000000       0.00000000 </v>
   <v>      -0.25000000       0.25000000       0.00000000 </v>
   <v>       0.00000000       0.50000000       0.00000000 </v>
   <v>       0.25000000       0.50000000       0.00000000 </v>
   <v>       0.50000000       0.50000000       0.00000000 </v>
  </varray>
  <varray name="weights" >
   <v>       0.06250000 </v>
   <v>       0.12500000 </v>
   <v>       0.06250000 </v>
   <v>       0.12500000 </v>
   <v>       0.12500000 </v>
   <v>       0.12500000 </v>
   <v>       0.12500000 </v>
   <v>       0.06250000 </v>
   <v>       0.12500000 </v>
   <v>       0.06250000 </v>
  </varray>
 </kpoints>
 <parameters>
  <separator name="general" >
   <i type="string" name="SYSTEM">unknown system</i>
   <i type="logical" name="LCOMPAT"> F  </i>
  </separator>
  <separator name="electronic" >
   <i type="string" name="PREC">a</i>
   <i name="ENMAX">    500.00000000</i>
   <i name="ENAUG">    605.39200000</i>
   <i name="EDIFF">      0.00000100</i>
   <i type="int" name="IALGO">    38</i>
   <i type="int" name="IWAVPR">    10</i>
   <i type="int" name="NBANDS">   756</i>
   <i name="NELECT">   1256.00000000</i>
   <i type="int" name="TURBO">     0</i>
   <i type="int" name="IRESTART">     0</i>
   <i type="int" name="NREBOOT">     0</i>
   <i type="int" name="NMIN">     0</i>
   <i name="EREF">      0.00000000</i>
   <separator name="electronic smearing" >
    <i type="int" name="ISMEAR">     0</i>
    <i name="SIGMA">      0.05000000</i>
    <i name="KSPACING">      0.50000000</i>
    <i type="logical" name="KGAMMA"> T  </i>
   </separator>
   <separator name="electronic projectors" >
    <i type="logical" name="LREAL"> F  </i>
    <v name="ROPT">      0.00000000      0.00000000</v>
    <i type="int" name="LMAXPAW">  -100</i>
    <i type="int" name="LMAXMIX">     2</i>
    <i type="logical" name="NLSPLINE"> F  </i>
   </separator>
   <separator name="electronic startup" >
    <i type="int" name="ISTART">     0</i>
    <i type="int" name="ICHARG">     2</i>
    <i type="int" name="INIWAV">     1</i>
   </separator>
   <separator name="electronic spin" >
    <i type="int" name="ISPIN">     1</i>
    <i type="logical" name="LNONCOLLINEAR"> F  </i>
    <v name="MAGMOM">      1.00000000      1.00000000      1.00000000      1.00000000      1.00000000      1.00000000      1.00000000      1.00000000      1.00000000      1.00000000      1.00000000      1.00000000      1.00000000      1.00000000      1.00000000      1.00000000      1.00000000      1.00000000      1.00000000      1.00000000
      1.00000000      1.00000000      1.00000000      1.00000000      1.00000000      1.00000000      1.00000000      1.00000000      1.00000000      1.00000000      1.00000000      1.00000000      1.00000000      1.00000000      1.00000000      1.00000000      1.00000000      1.00000000      1.00000000      1.00000000
      1.00000000      1.00000000      1.00000000      1.00000000      1.00000000      1.00000000      1.00000000      1.00000000      1.00000000      1.00000000      1.00000000      1.00000000      1.00000000      1.00000000      1.00000000      1.00000000      1.00000000      1.00000000      1.00000000      1.00000000
      1.00000000      1.00000000      1.00000000      1.00000000      1.00000000      1.00000000      1.00000000      1.00000000      1.00000000      1.00000000      1.00000000      1.00000000      1.00000000      1.00000000      1.00000000      1.00000000      1.00000000      1.00000000      1.00000000      1.00000000
      1.00000000      1.00000000      1.00000000      1.00000000      1.00000000      1.00000000      1.00000000      1.00000000      1.00000000      1.00000000      1.00000000      1.00000000      1.00000000      1.00000000      1.00000000      1.00000000      1.00000000      1.00000000      1.00000000      1.00000000
      1.00000000      1.00000000      1.00000000      1.00000000      1.00000000      1.00000000      1.00000000      1.00000000      1.00000000      1.00000000      1.00000000      1.00000000      1.00000000      1.00000000      1.00000000      1.00000000</v>
    <i name="NUPDOWN">     -1.00000000</i>
    <i type="logical" name="LSORBIT"> F  </i>
    <v name="SAXIS">      0.00000000      0.00000000      1.00000000</v>
    <i type="logical" name="LSPIRAL"> F  </i>
    <v name="QSPIRAL">      0.00000000      0.00000000      0.00000000</v>
    <i type="logical" name="LZEROZ"> F  </i>
   </separator>
   <separator name="electronic exchange-correlation" >
    <i type="logical" name="LASPH"> F  </i>
    <i type="logical" name="LMETAGGA"> F  </i>
   </separator>
   <separator name="electronic convergence" >
    <i type="int" name="NELM">   300</i>
    <i type="int" name="NELMDL">    -5</i>
    <i type="int" name="NELMIN">     5</i>
    <i name="ENINI">    500.00000000</i>
    <separator name="electronic convergence detail" >
     <i type="logical" name="LDIAG"> T  </i>
     <i type="logical" name="LSUBROT"> F  </i>
     <i name="WEIMIN">      0.00000000</i>
     <i name="EBREAK">      0.00000000</i>
     <i name="DEPER">      0.30000000</i>
     <i type="int" name="NRMM">     4</i>
     <i name="TIME">      0.40000000</i>
    </separator>
   </separator>
   <separator name="electronic mixer" >
    <i name="AMIX">      0.40000000</i>
    <i name="BMIX">      1.00000000</i>
    <i name="AMIN">      0.10000000</i>
    <i name="AMIX_MAG">      1.60000000</i>
    <i name="BMIX_MAG">      1.00000000</i>
    <separator name="electronic mixer details" >
     <i type="int" name="IMIX">     4</i>
     <i type="logical" name="MIXFIRST"> F  </i>
     <i type="int" name="MAXMIX">   -45</i>
     <i name="WC">    100.00000000</i>
     <i type="int" name="INIMIX">     1</i>
     <i type="int" name="MIXPRE">     1</i>
     <i type="int" name="MREMOVE">     5</i>
    </separator>
   </separator>
   <separator name="electronic dipolcorrection" >
    <i type="logical" name="LDIPOL"> F  </i>
    <i type="logical" name="LMONO"> F  </i>
    <i type="int" name="IDIPOL">     0</i>
    <i name="EPSILON">      1.00000000</i>
    <v name="DIPOL">   -100.00000000   -100.00000000   -100.00000000</v>
    <i name="EFIELD">      0.00000000</i>
   </separator>
  </separator>
  <separator name="grids" >
   <i type="int" name="NGX">    80</i>
   <i type="int" name="NGY">    80</i>
   <i type="int" name="NGZ">   210</i>
   <i type="int" name="NGXF">   160</i>
   <i type="int" name="NGYF">   160</i>
   <i type="int" name="NGZF">   420</i>
   <i type="logical" name="ADDGRID"> T  </i>
  </separator>
  <separator name="ionic" >
   <i type="int" name="NSW">     0</i>
   <i type="int" name="IBRION">    -1</i>
   <i type="int" name="MDALGO">     0</i>
   <i type="int" name="ISIF">     2</i>
   <i name="PSTRESS">      0.00000000</i>
   <i name="EDIFFG">      0.00001000</i>
   <i type="int" name="NFREE">     0</i>
   <i name="POTIM">      0.50000000</i>
   <i name="SMASS">     -3.00000000</i>
   <i name="SCALEE">      1.00000000</i>
  </separator>
  <separator name="ionic md" >
   <i name="TEBEG">      0.00010000</i>
   <i name="TEEND">      0.00010000</i>
   <i type="int" name="NBLOCK">     1</i>
   <i type="int" name="KBLOCK">     1</i>
   <i type="int" name="NPACO">   256</i>
   <i name="APACO">     16.00000000</i>
  </separator>
  <separator name="symmetry" >
   <i type="int" name="ISYM">     2</i>
   <i name="SYMPREC">      0.00001000</i>
  </separator>
  <separator name="dos" >
   <i type="int" name="LORBIT">     0</i>
   <v name="RWIGS">     -1.00000000     -1.00000000</v>
   <i type="int" name="NEDOS">   301</i>
   <i name="EMIN">     10.00000000</i>
   <i name="EMAX">    -10.00000000</i>
   <i name="EFERMI">      0.00000000</i>
  </separator>
  <separator name="writing" >
   <i type="int" name="NWRITE">     2</i>
   <i type="logical" name="LWAVE"> F  </i>
   <i type="logical" name="LDOWNSAMPLE"> F  </i>
   <i type="logical" name="LCHARG"> F  </i>
   <i type="logical" name="LPARD"> F  </i>
   <i type="logical" name="LVTOT"> F  </i>
   <i type="logical" name="LVHAR"> F  </i>
   <i type="logical" name="LELF"> F  </i>
   <i type="logical" name="LOPTICS"> F  </i>
   <v name="STM">      0.00000000      0.00000000      0.00000000      0.00000000      0.00000000      0.00000000      0.00000000</v>
  </separator>
  <separator name="performance" >
   <i type="int" name="NPAR">     4</i>
   <i type="int" name="NSIM">     4</i>
   <i type="int" name="NBLK">    -1</i>
   <i type="logical" name="LPLANE"> T  </i>
   <i type="logical" name="LSCALAPACK"> F  </i>
   <i type="logical" name="LSCAAWARE"> F  </i>
   <i type="logical" name="LSCALU"> F  </i>
   <i type="logical" name="LASYNC"> F  </i>
   <i type="logical" name="LORBITALREAL"> F  </i>
  </separator>
  <separator name="miscellaneous" >
   <i type="int" name="IDIOT">     3</i>
   <i type="int" name="ISPECIAL">     0</i>
   <i type="logical" name="LMUSIC"> F  </i>
   <v name="POMASS">     63.54600000     16.00000000</v>
   <v name="DARWINR">      0.00000000      0.00000000</v>
   <v name="DARWINV">      1.00000000      1.00000000</v>
   <i type="logical" name="LCORR"> T  </i>
  </separator>
  <i type="logical" name="GGA_COMPAT"> T  </i>
  <i type="logical" name="LBERRY"> F  </i>
  <i type="int" name="ICORELEVEL">     0</i>
  <i type="logical" name="LDAU"> F  </i>
  <i type="int" name="I_CONSTRAINED_M">     0</i>
  <separator name="electronic exchange-correlation" >
   <i type="string" name="GGA">--</i>
   <i type="int" name="VOSKOWN">     0</i>
   <i type="logical" name="LHFCALC"> F  </i>
   <i type="string" name="PRECFOCK"></i>
   <i type="logical" name="LSYMGRAD"> F  </i>
   <i type="logical" name="LHFONE"> F  </i>
   <i type="logical" name="LRHFCALC"> F  </i>
   <i type="logical" name="LTHOMAS"> F  </i>
   <i type="logical" name="LMODELHF"> F  </i>
   <i name="ENCUT4O">     -1.00000000</i>
   <i type="int" name="EXXOEP">     0</i>
   <i type="int" name="FOURORBIT">     0</i>
   <i name="AEXX">      0.00000000</i>
   <i name="HFALPHA">      0.00000000</i>
   <i name="MCALPHA">      0.00000000</i>
   <i name="ALDAX">      1.00000000</i>
   <i name="AGGAX">      1.00000000</i>
   <i name="ALDAC">      1.00000000</i>
   <i name="AGGAC">      1.00000000</i>
   <i type="int" name="NKREDX">     1</i>
   <i type="int" name="NKREDY">     1</i>
   <i type="int" name="NKREDZ">     1</i>
   <i type="logical" name="SHIFTRED"> F  </i>
   <i type="logical" name="ODDONLY"> F  </i>
   <i type="logical" name="EVENONLY"> F  </i>
   <i type="int" name="LMAXFOCK">     0</i>
   <i type="int" name="NMAXFOCKAE">     0</i>
   <i type="logical" name="LFOCKAEDFT"> F  </i>
   <i name="HFSCREEN">      0.00000000</i>
   <i name="HFSCREENC">      0.00000000</i>
   <i type="int" name="NBANDSGWLOW">     0</i>
  </separator>
  <separator name="vdW DFT" >
   <i type="logical" name="LUSE_VDW"> F  </i>
   <i name="Zab_VDW">     -0.84910000</i>
   <i name="PARAM1">      0.12340000</i>
   <i name="PARAM2">      1.00000000</i>
   <i name="PARAM3">      0.00000000</i>
  </separator>
  <separator name="model GW" >
   <i type="int" name="MODEL_GW">     0</i>
   <i name="MODEL_EPS0">     13.16858037</i>
   <i name="MODEL_ALPHA">      1.00000000</i>
  </separator>
  <separator name="linear response parameters" >
   <i type="logical" name="LEPSILON"> F  </i>
   <i type="logical" name="LRPA"> F  </i>
   <i type="logical" name="LNABLA"> F  </i>
   <i type="logical" name="LVEL"> F  </i>
   <i type="int" name="KINTER">     0</i>
   <i name="CSHIFT">      0.10000000</i>
   <i name="OMEGAMAX">     -1.00000000</i>
   <i name="DEG_THRESHOLD">      0.00200000</i>
   <i name="RTIME">     -0.10000000</i>
   <i name="WPLASMAI">      0.00000000</i>
   <v name="DFIELD">      0.00000000      0.00000000      0.00000000</v>
   <v name="WPLASMA">      0.00000000      0.00000000      0.00000000      0.00000000      0.00000000      0.00000000      0.00000000      0.00000000      0.00000000</v>
  </separator>
  <separator name="orbital magnetization" >
   <i type="logical" name="NUCIND"> F  </i>
   <v name="MAGPOS">      0.00000000      0.00000000      0.00000000</v>
   <i type="logical" name="LNICSALL"> T  </i>
   <i type="logical" name="ORBITALMAG"> F  </i>
   <i type="logical" name="LMAGBLOCH"> F  </i>
   <i type="logical" name="LCHIMAG"> F  </i>
   <i type="logical" name="LGAUGE"> T  </i>
   <i type="int" name="MAGATOM">     0</i>
   <v name="MAGDIPOL">      0.00000000      0.00000000      0.00000000</v>
   <v name="AVECCONST">      0.00000000      0.00000000      0.00000000</v>
  </separator>
  <separator name="response functions" >
   <i type="logical" name="LADDER"> F  </i>
   <i type="logical" name="LRPAFORCE"> F  </i>
   <i type="logical" name="LFXC"> F  </i>
   <i type="logical" name="LHARTREE"> T  </i>
   <i type="int" name="IBSE">     0</i>
   <v type="int" name="KPOINT">    -1     0     0     0</v>
   <i type="logical" name="LTCTE"> F  </i>
   <i type="logical" name="LTETE"> F  </i>
   <i type="logical" name="LTRIPLET"> F  </i>
   <i type="logical" name="LFXCEPS"> F  </i>
   <i type="logical" name="LFXHEG"> F  </i>
   <i type="int" name="NATURALO">     2</i>
   <i type="logical" name="L2ORDER"> F  </i>
   <i type="logical" name="LMP2LT"> F  </i>
   <i type="logical" name="LUSEW"> F  </i>
   <i name="ENCUTGW">     -2.00000000</i>
   <i name="ENCUTGWSOFT">     -2.00000000</i>
   <i name="ENCUTLF">     -1.00000000</i>
   <i type="int" name="LMAXMP2">    -1</i>
   <i name="SCISSOR">      0.00000000</i>
   <i type="int" name="NOMEGA">     0</i>
   <i type="int" name="NOMEGAR">     0</i>
   <i type="int" name="NBANDSGW">    -1</i>
   <i type="int" name="NBANDSO">    -1</i>
   <i type="int" name="NBANDSV">    -1</i>
   <i type="int" name="NELM">   300</i>
   <i type="int" name="NELMHF">     1</i>
   <i type="int" name="DIM">     3</i>
   <i type="int" name="ANTIRES">     0</i>
   <i name="OMEGAMAX">    -30.00000000</i>
   <i name="OMEGAMIN">    -30.00000000</i>
   <i name="OMEGATL">   -200.00000000</i>
   <i type="int" name="OMEGAGRID">   140</i>
   <i name="CSHIFT">     -0.10000000</i>
   <i type="logical" name="SELFENERGY"> F  </i>
   <i type="logical" name="LSPECTRAL"> F  </i>
   <i type="logical" name="LSPECTRALGW"> F  </i>
   <i type="logical" name="LSINGLES"> F  </i>
   <i type="logical" name="LFERMIGW"> F  </i>
   <i type="logical" name="ODDONLYGW"> F  </i>
   <i type="logical" name="EVENONLYGW"> F  </i>
   <i type="int" name="NKREDLFX">     1</i>
   <i type="int" name="NKREDLFY">     1</i>
   <i type="int" name="NKREDLFZ">     1</i>
   <i type="int" name="MAXMEM">  2800</i>
   <i type="int" name="TELESCOPE">     0</i>
   <i type="int" name="TAUPAR">     1</i>
   <i type="int" name="OMEGAPAR">    -1</i>
   <i name="LAMBDA">      1.00000000</i>
  </separator>
  <separator name="External order field" >
   <i name="OFIELD_KAPPA">      0.00000000</i>
   <v name="OFIELD_K">      0.00000000      0.00000000      0.00000000</v>
   <i name="OFIELD_Q6_NEAR">      0.00000000</i>
   <i name="OFIELD_Q6_FAR">      0.00000000</i>
   <i name="OFIELD_A">      0.00000000</i>
  </separator>
 </parameters>
 <atominfo>
  <atoms>     116 </atoms>
  <types>       2 </types>
  <array name="atoms" >
   <dimension dim="1">ion</dimension>
   <field type="string">element</field>
   <field type="int">atomtype</field>
   <set>
    <rc><c>Cu</c><c>   1</c></rc>
    <rc><c>Cu</c><c>   1</c></rc>
    <rc><c>Cu</c><c>   1</c></rc>
    <rc><c>Cu</c><c>   1</c></rc>
    <rc><c>Cu</c><c>   1</c></rc>
    <rc><c>Cu</c><c>   1</c></rc>
    <rc><c>Cu</c><c>   1</c></rc>
    <rc><c>Cu</c><c>   1</c></rc>
    <rc><c>Cu</c><c>   1</c></rc>
    <rc><c>Cu</c><c>   1</c></rc>
    <rc><c>Cu</c><c>   1</c></rc>
    <rc><c>Cu</c><c>   1</c></rc>
    <rc><c>Cu</c><c>   1</c></rc>
    <rc><c>Cu</c><c>   1</c></rc>
    <rc><c>Cu</c><c>   1</c></rc>
    <rc><c>Cu</c><c>   1</c></rc>
    <rc><c>Cu</c><c>   1</c></rc>
    <rc><c>Cu</c><c>   1</c></rc>
    <rc><c>Cu</c><c>   1</c></rc>
    <rc><c>Cu</c><c>   1</c></rc>
    <rc><c>Cu</c><c>   1</c></rc>
    <rc><c>Cu</c><c>   1</c></rc>
    <rc><c>Cu</c><c>   1</c></rc>
    <rc><c>Cu</c><c>   1</c></rc>
    <rc><c>Cu</c><c>   1</c></rc>
    <rc><c>Cu</c><c>   1</c></rc>
    <rc><c>Cu</c><c>   1</c></rc>
    <rc><c>Cu</c><c>   1</c></rc>
    <rc><c>Cu</c><c>   1</c></rc>
    <rc><c>Cu</c><c>   1</c></rc>
    <rc><c>Cu</c><c>   1</c></rc>
    <rc><c>Cu</c><c>   1</c></rc>
    <rc><c>Cu</c><c>   1</c></rc>
    <rc><c>Cu</c><c>   1</c></rc>
    <rc><c>Cu</c><c>   1</c></rc>
    <rc><c>Cu</c><c>   1</c></rc>
    <rc><c>Cu</c><c>   1</c></rc>
    <rc><c>Cu</c><c>   1</c></rc>
    <rc><c>Cu</c><c>   1</c></rc>
    <rc><c>Cu</c><c>   1</c></rc>
    <rc><c>Cu</c><c>   1</c></rc>
    <rc><c>Cu</c><c>   1</c></rc>
    <rc><c>Cu</c><c>   1</c></rc>
    <rc><c>Cu</c><c>   1</c></rc>
    <rc><c>Cu</c><c>   1</c></rc>
    <rc><c>Cu</c><c>   1</c></rc>
    <rc><c>Cu</c><c>   1</c></rc>
    <rc><c>Cu</c><c>   1</c></rc>
    <rc><c>Cu</c><c>   1</c></rc>
    <rc><c>Cu</c><c>   1</c></rc>
    <rc><c>Cu</c><c>   1</c></rc>
    <rc><c>Cu</c><c>   1</c></rc>
    <rc><c>Cu</c><c>   1</c></rc>
    <rc><c>Cu</c><c>   1</c></rc>
    <rc><c>Cu</c><c>   1</c></rc>
    <rc><c>Cu</c><c>   1</c></rc>
    <rc><c>Cu</c><c>   1</c></rc>
    <rc><c>Cu</c><c>   1</c></rc>
    <rc><c>Cu</c><c>   1</c></rc>
    <rc><c>Cu</c><c>   1</c></rc>
    <rc><c>Cu</c><c>   1</c></rc>
    <rc><c>Cu</c><c>   1</c></rc>
    <rc><c>Cu</c><c>   1</c></rc>
    <rc><c>Cu</c><c>   1</c></rc>
    <rc><c>Cu</c><c>   1</c></rc>
    <rc><c>Cu</c><c>   1</c></rc>
    <rc><c>Cu</c><c>   1</c></rc>
    <rc><c>Cu</c><c>   1</c></rc>
    <rc><c>Cu</c><c>   1</c></rc>
    <rc><c>Cu</c><c>   1</c></rc>
    <rc><c>Cu</c><c>   1</c></rc>
    <rc><c>Cu</c><c>   1</c></rc>
    <rc><c>Cu</c><c>   1</c></rc>
    <rc><c>Cu</c><c>   1</c></rc>
    <rc><c>Cu</c><c>   1</c></rc>
    <rc><c>Cu</c><c>   1</c></rc>
    <rc><c>Cu</c><c>   1</c></rc>
    <rc><c>Cu</c><c>   1</c></rc>
    <rc><c>Cu</c><c>   1</c></rc>
    <rc><c>Cu</c><c>   1</c></rc>
    <rc><c>Cu</c><c>   1</c></rc>
    <rc><c>Cu</c><c>   1</c></rc>
    <rc><c>Cu</c><c>   1</c></rc>
    <rc><c>Cu</c><c>   1</c></rc>
    <rc><c>Cu</c><c>   1</c></rc>
    <rc><c>Cu</c><c>   1</c></rc>
    <rc><c>Cu</c><c>   1</c></rc>
    <rc><c>Cu</c><c>   1</c></rc>
    <rc><c>Cu</c><c>   1</c></rc>
    <rc><c>Cu</c><c>   1</c></rc>
    <rc><c>Cu</c><c>   1</c></rc>
    <rc><c>Cu</c><c>   1</c></rc>
    <rc><c>Cu</c><c>   1</c></rc>
    <rc><c>Cu</c><c>   1</c></rc>
    <rc><c>Cu</c><c>   1</c></rc>
    <rc><c>Cu</c><c>   1</c></rc>
    <rc><c>Cu</c><c>   1</c></rc>
    <rc><c>Cu</c><c>   1</c></rc>
    <rc><c>Cu</c><c>   1</c></rc>
    <rc><c>Cu</c><c>   1</c></rc>
    <rc><c>Cu</c><c>   1</c></rc>
    <rc><c>Cu</c><c>   1</c></rc>
    <rc><c>Cu</c><c>   1</c></rc>
    <rc><c>Cu</c><c>   1</c></rc>
    <rc><c>Cu</c><c>   1</c></rc>
    <rc><c>Cu</c><c>   1</c></rc>
    <rc><c>Cu</c><c>   1</c></rc>
    <rc><c>Cu</c><c>   1</c></rc>
    <rc><c>Cu</c><c>   1</c></rc>
    <rc><c>Cu</c><c>   1</c></rc>
    <rc><c>Cu</c><c>   1</c></rc>
    <rc><c>Cu</c><c>   1</c></rc>
    <rc><c>O </c><c>   2</c></rc>
    <rc><c>O </c><c>   2</c></rc>
    <rc><c>O </c><c>   2</c></rc>
    <rc><c>O </c><c>   2</c></rc>
   </set>
  </array>
  <array name="atomtypes" >
   <dimension dim="1">type</dimension>
   <field type="int">atomspertype</field>
   <field type="string">element</field>
   <field>mass</field>
   <field>valence</field>
   <field type="string">pseudopotential</field>
   <set>
    <rc><c> 112</c><c>Cu</c><c>     63.54600000</c><c>     11.00000000</c><c> PAW_PBE Cu 05Jan2001                   </c></rc>
    <rc><c>   4</c><c>O </c><c>     16.00000000</c><c>      6.00000000</c><c> PAW_PBE O 08Apr2002                    </c></rc>
   </set>
  </array>
 </atominfo>
 <structure name="initialpos" >
  <crystal>
   <varray name="basis" >
    <v>      10.28518105       0.00000000       0.00000000 </v>
    <v>       5.14259052       8.90722807       0.00000000 </v>
    <v>       0.00000000       0.00000000      27.79016876 </v>
   </varray>
   <i name="volume">   2545.92553775 </i>
   <varray name="rec_basis" >
    <v>       0.09722726      -0.05613419       0.00000000 </v>
    <v>       0.00000000       0.11226837       0.00000000 </v>
    <v>       0.00000000       0.00000000       0.03598395 </v>
   </varray>
  </crystal>
  <varray name="positions" >
   <v>       0.00000000       0.00000000       0.22663990 </v>
   <v>       0.00000000       0.50000000       0.22663990 </v>
   <v>       0.50000000       0.00000000       0.22663990 </v>
   <v>       0.50000000       0.50000000       0.22663990 </v>
   <v>       0.00000000       0.25000000       0.22663990 </v>
   <v>       0.00000000       0.75000000       0.22663990 </v>
   <v>       0.50000000       0.25000000       0.22663990 </v>
   <v>       0.50000000       0.75000000       0.22663990 </v>
   <v>       0.25000000       0.00000000       0.22663990 </v>
   <v>       0.25000000       0.50000000       0.22663990 </v>
   <v>       0.75000000       0.00000000       0.22663990 </v>
   <v>       0.75000000       0.50000000       0.22663990 </v>
   <v>       0.25000000       0.25000000       0.22663990 </v>
   <v>       0.25000000       0.75000000       0.22663990 </v>
   <v>       0.75000000       0.25000000       0.22663990 </v>
   <v>       0.75000000       0.75000000       0.22663990 </v>
   <v>       0.16666666       0.16666666       0.30218653 </v>
   <v>       0.16666666       0.66666666       0.30218653 </v>
   <v>       0.66666666       0.16666666       0.30218653 </v>
   <v>       0.66666666       0.66666666       0.30218653 </v>
   <v>       0.16666666       0.41666666       0.30218653 </v>
   <v>       0.16666666       0.91666666       0.30218653 </v>
   <v>       0.66666666       0.41666666       0.30218653 </v>
   <v>       0.66666666       0.91666666       0.30218653 </v>
   <v>       0.41666666       0.16666666       0.30218653 </v>
   <v>       0.41666666       0.66666666       0.30218653 </v>
   <v>       0.91666666       0.16666666       0.30218653 </v>
   <v>       0.91666666       0.66666666       0.30218653 </v>
   <v>       0.41666666       0.41666666       0.30218653 </v>
   <v>       0.41666666       0.91666666       0.30218653 </v>
   <v>       0.91666666       0.41666666       0.30218653 </v>
   <v>       0.91666666       0.91666666       0.30218653 </v>
   <v>       0.08333333       0.08333333       0.37716320 </v>
   <v>       0.08333333       0.58333333       0.37716320 </v>
   <v>       0.58333333       0.08333333       0.37716320 </v>
   <v>       0.58333333       0.58333333       0.37716320 </v>
   <v>       0.08351614       0.33324190       0.37729758 </v>
   <v>       0.08351614       0.83324190       0.37729758 </v>
   <v>       0.58351614       0.33324190       0.37729758 </v>
   <v>       0.58351614       0.83324190       0.37729758 </v>
   <v>       0.33324190       0.08351614       0.37729758 </v>
   <v>       0.33324190       0.58351614       0.37729758 </v>
   <v>       0.83324190       0.08351614       0.37729758 </v>
   <v>       0.83324190       0.58351614       0.37729758 </v>
   <v>       0.33324190       0.33324190       0.37729758 </v>
   <v>       0.33324190       0.83324190       0.37729758 </v>
   <v>       0.83324190       0.33324190       0.37729758 </v>
   <v>       0.83324190       0.83324190       0.37729758 </v>
   <v>       0.00012997       0.00012997       0.45242342 </v>
   <v>       0.00012997       0.50012997       0.45242342 </v>
   <v>       0.50012997       0.00012997       0.45242342 </v>
   <v>       0.50012997       0.50012997       0.45242342 </v>
   <v>       0.00012997       0.24974005       0.45242342 </v>
   <v>       0.00012997       0.74974005       0.45242342 </v>
   <v>       0.50012997       0.24974005       0.45242342 </v>
   <v>       0.50012997       0.74974005       0.45242342 </v>
   <v>       0.24974005       0.00012997       0.45242342 </v>
   <v>       0.24974005       0.50012997       0.45242342 </v>
   <v>       0.74974005       0.00012997       0.45242342 </v>
   <v>       0.74974005       0.50012997       0.45242342 </v>
   <v>       0.25000000       0.25000000       0.45288750 </v>
   <v>       0.25000000       0.75000000       0.45288750 </v>
   <v>       0.75000000       0.25000000       0.45288750 </v>
   <v>       0.75000000       0.75000000       0.45288750 </v>
   <v>       0.16660598       0.16660598       0.52813907 </v>
   <v>       0.16660598       0.66660598       0.52813907 </v>
   <v>       0.66660598       0.16660598       0.52813907 </v>
   <v>       0.66660598       0.66660598       0.52813907 </v>
   <v>       0.16660598       0.41678801       0.52813907 </v>
   <v>       0.16660598       0.91678801       0.52813907 </v>
   <v>       0.66660598       0.41678801       0.52813907 </v>
   <v>       0.66660598       0.91678801       0.52813907 </v>
   <v>       0.41678801       0.16660598       0.52813907 </v>
   <v>       0.41678801       0.66660598       0.52813907 </v>
   <v>       0.91678801       0.16660598       0.52813907 </v>
   <v>       0.91678801       0.66660598       0.52813907 </v>
   <v>       0.41666666       0.41666666       0.52741939 </v>
   <v>       0.41666666       0.91666666       0.52741939 </v>
   <v>       0.91666666       0.41666666       0.52741939 </v>
   <v>       0.91666666       0.91666666       0.52741939 </v>
   <v>       0.08333333       0.08333333       0.60253339 </v>
   <v>       0.08333333       0.58333333       0.60253339 </v>
   <v>       0.58333333       0.08333333       0.60253339 </v>
   <v>       0.58333333       0.58333333       0.60253339 </v>
   <v>       0.08130935       0.33434529       0.60320464 </v>
   <v>       0.08130935       0.83434529       0.60320464 </v>
   <v>       0.58130935       0.33434529       0.60320464 </v>
   <v>       0.58130935       0.83434529       0.60320464 </v>
   <v>       0.33434529       0.08130935       0.60320464 </v>
   <v>       0.33434529       0.58130935       0.60320464 </v>
   <v>       0.83434529       0.08130935       0.60320464 </v>
   <v>       0.83434529       0.58130935       0.60320464 </v>
   <v>       0.33434529       0.33434529       0.60320464 </v>
   <v>       0.33434529       0.83434529       0.60320464 </v>
   <v>       0.83434529       0.33434529       0.60320464 </v>
   <v>       0.83434529       0.83434529       0.60320464 </v>
   <v>       0.49852148       0.49714648       0.68108137 </v>
   <v>       0.49714648       0.99714648       0.68057248 </v>
   <v>       0.99714648       0.49714648       0.68057248 </v>
   <v>       0.99714648       0.99714648       0.68057248 </v>
   <v>       0.49714648       0.25570704       0.68057248 </v>
   <v>       0.49714648       0.75570704       0.68057248 </v>
   <v>       0.99714648       0.25570704       0.68057248 </v>
   <v>       0.99714648       0.75570704       0.68057248 </v>
   <v>       0.25570704       0.49714648       0.68057248 </v>
   <v>       0.25570704       0.99714648       0.68057248 </v>
   <v>       0.75570704       0.49714648       0.68057248 </v>
   <v>       0.75570704       0.99714648       0.68057248 </v>
   <v>       0.25000000       0.25000000       0.67480871 </v>
   <v>       0.25000000       0.75000000       0.67480871 </v>
   <v>       0.75000000       0.25000000       0.67480871 </v>
   <v>       0.75000000       0.75000000       0.67480871 </v>
   <v>       0.08333333       0.08333333       0.72043888 </v>
   <v>       0.08333333       0.58333333       0.72043888 </v>
   <v>       0.58333333       0.08333333       0.72043888 </v>
   <v>       0.58333333       0.58333333       0.72043888 </v>
  </varray>
 </structure>
 <calculation>
  <scstep>
   <time name="dav">  166.59  166.72</time>
   <time name="total">  167.18  167.32</time>
   <energy>
    <i name="alphaZ">   6463.29446255 </i>
    <i name="ewald"> 664511.47025193 </i>
    <i name="hartreedc">-815266.36731790 </i>
    <i name="XCdc">   5009.43712234 </i>
    <i name="pawpsdc"> 122173.85035501 </i>
    <i name="pawaedc">-138312.01710912 </i>
    <i name="eentropy">     -0.02929406 </i>
    <i name="bandstr">   8852.82935536 </i>
    <i name="atom"> 157518.83071590 </i>
    <i name="e_fr_energy">  10951.29854200 </i>
    <i name="e_wo_entrp">  10951.32783606 </i>
    <i name="e_0_energy">  10951.31318903 </i>
   </energy>
  </scstep>
  <scstep>
   <time name="dav">  170.65  170.77</time>
   <time name="total">  170.67  170.80</time>
   <energy>
    <i name="e_fr_energy">   1074.19930312 </i>
    <i name="e_wo_entrp">   1074.24210445 </i>
    <i name="e_0_energy">   1074.22070378 </i>
   </energy>
  </scstep>
  <scstep>
   <time name="dav">  174.00  174.12</time>
   <time name="total">  174.03  174.14</time>
   <energy>
    <i name="e_fr_energy">   -373.65614303 </i>
    <i name="e_wo_entrp">   -373.59083194 </i>
    <i name="e_0_energy">   -373.62348748 </i>
   </energy>
  </scstep>
  <scstep>
   <time name="dav">  178.73  178.87</time>
   <time name="total">  178.75  178.89</time>
   <energy>
    <i name="e_fr_energy">   -524.80646472 </i>
    <i name="e_wo_entrp">   -524.74307223 </i>
    <i name="e_0_energy">   -524.77476847 </i>
   </energy>
  </scstep>
  <scstep>
   <time name="dav">  170.01  170.09</time>
   <time name="total">  174.62  174.71</time>
   <energy>
    <i name="e_fr_energy">   -530.85561360 </i>
    <i name="e_wo_entrp">   -530.79235880 </i>
    <i name="e_0_energy">   -530.82398620 </i>
   </energy>
  </scstep>
  <scstep>
   <time name="dav">  170.38  170.46</time>
   <time name="total">  176.32  176.40</time>
   <energy>
    <i name="e_fr_energy">   -477.90861627 </i>
    <i name="e_wo_entrp">   -477.85255928 </i>
    <i name="e_0_energy">   -477.88058777 </i>
   </energy>
  </scstep>
  <scstep>
   <time name="dav">  182.28  182.36</time>
   <time name="total">  187.29  187.39</time>
   <energy>
    <i name="e_fr_energy">   -509.28837871 </i>
    <i name="e_wo_entrp">   -509.17445371 </i>
    <i name="e_0_energy">   -509.23141621 </i>
   </energy>
  </scstep>
  <scstep>
   <time name="dav">  195.73  195.83</time>
   <time name="total">  200.78  200.91</time>
   <energy>
    <i name="e_fr_energy">   -444.26781532 </i>
    <i name="e_wo_entrp">   -444.18532172 </i>
    <i name="e_0_energy">   -444.22656852 </i>
   </energy>
  </scstep>
  <scstep>
   <time name="dav">  209.19  209.31</time>
   <time name="total">  214.21  214.33</time>
   <energy>
    <i name="e_fr_energy">   -428.40691640 </i>
    <i name="e_wo_entrp">   -428.36722541 </i>
    <i name="e_0_energy">   -428.38707091 </i>
   </energy>
  </scstep>
  <scstep>
   <time name="dav">  183.70  183.79</time>
   <time name="total">  189.83  189.95</time>
   <energy>
    <i name="e_fr_energy">   -429.25128568 </i>
    <i name="e_wo_entrp">   -429.19773769 </i>
    <i name="e_0_energy">   -429.22451168 </i>
   </energy>
  </scstep>
  <scstep>
   <time name="dav">  176.73  176.87</time>
   <time name="total">  181.74  181.91</time>
   <energy>
    <i name="e_fr_energy">   -427.90442757 </i>
    <i name="e_wo_entrp">   -427.83757768 </i>
    <i name="e_0_energy">   -427.87100262 </i>
   </energy>
  </scstep>
  <scstep>
   <time name="dav">  241.09  241.25</time>
   <time name="total">  246.11  256.10</time>
   <energy>
    <i name="e_fr_energy">   -427.70252392 </i>
    <i name="e_wo_entrp">   -427.64781465 </i>
    <i name="e_0_energy">   -427.67516928 </i>
   </energy>
  </scstep>
  <scstep>
   <time name="dav">  171.01  171.09</time>
   <time name="total">  179.46  180.32</time>
   <energy>
    <i name="e_fr_energy">   -427.64437541 </i>
    <i name="e_wo_entrp">   -427.58983174 </i>
    <i name="e_0_energy">   -427.61710357 </i>
   </energy>
  </scstep>
  <scstep>
   <time name="dav">  172.47  172.57</time>
   <time name="total">  177.50  177.62</time>
   <energy>
    <i name="e_fr_energy">   -427.54051732 </i>
    <i name="e_wo_entrp">   -427.49128512 </i>
    <i name="e_0_energy">   -427.51590122 </i>
   </energy>
  </scstep>
  <scstep>
   <time name="dav">  169.74  169.83</time>
   <time name="total">  176.16  176.26</time>
   <energy>
    <i name="e_fr_energy">   -427.60638447 </i>
    <i name="e_wo_entrp">   -427.55779702 </i>
    <i name="e_0_energy">   -427.58209075 </i>
   </energy>
  </scstep>
  <scstep>
   <time name="dav">  166.69  167.16</time>
   <time name="total">  171.71  172.18</time>
   <energy>
    <i name="e_fr_energy">   -427.50961524 </i>
    <i name="e_wo_entrp">   -427.45996126 </i>
    <i name="e_0_energy">   -427.48478825 </i>
   </energy>
  </scstep>
  <scstep>
   <time name="dav">  169.07  169.15</time>
   <time name="total">  174.06  174.13</time>
   <energy>
    <i name="e_fr_energy">   -427.47723773 </i>
    <i name="e_wo_entrp">   -427.42604338 </i>
    <i name="e_0_energy">   -427.45164056 </i>
   </energy>
  </scstep>
  <scstep>
   <time name="dav">  195.71  195.82</time>
   <time name="total">  200.76  200.88</time>
   <energy>
    <i name="e_fr_energy">   -427.46415321 </i>
    <i name="e_wo_entrp">   -427.41167790 </i>
    <i name="e_0_energy">   -427.43791555 </i>
   </energy>
  </scstep>
  <scstep>
   <time name="dav">  179.10  179.17</time>
   <time name="total">  184.06  184.13</time>
   <energy>
    <i name="e_fr_energy">   -427.46400951 </i>
    <i name="e_wo_entrp">   -427.41096677 </i>
    <i name="e_0_energy">   -427.43748814 </i>
   </energy>
  </scstep>
  <scstep>
   <time name="dav">  164.98  165.05</time>
   <time name="total">  172.05  172.12</time>
   <energy>
    <i name="e_fr_energy">   -427.46456664 </i>
    <i name="e_wo_entrp">   -427.41140990 </i>
    <i name="e_0_energy">   -427.43798827 </i>
   </energy>
  </scstep>
  <scstep>
   <time name="dav">  163.31  163.40</time>
   <time name="total">  168.31  168.40</time>
   <energy>
    <i name="e_fr_energy">   -427.46466373 </i>
    <i name="e_wo_entrp">   -427.41124858 </i>
    <i name="e_0_energy">   -427.43795616 </i>
   </energy>
  </scstep>
  <scstep>
   <time name="dav">  168.85  168.94</time>
   <time name="total">  173.83  173.92</time>
   <energy>
    <i name="e_fr_energy">   -427.46498386 </i>
    <i name="e_wo_entrp">   -427.41168510 </i>
    <i name="e_0_energy">   -427.43833448 </i>
   </energy>
  </scstep>
  <scstep>
   <time name="dav">  162.72  162.78</time>
   <time name="total">  168.13  168.19</time>
   <energy>
    <i name="e_fr_energy">   -427.46497283 </i>
    <i name="e_wo_entrp">   -427.41178305 </i>
    <i name="e_0_energy">   -427.43837794 </i>
   </energy>
  </scstep>
  <scstep>
   <time name="dav">  164.68  164.77</time>
   <time name="total">  170.25  170.35</time>
   <energy>
    <i name="e_fr_energy">   -427.46514693 </i>
    <i name="e_wo_entrp">   -427.41193023 </i>
    <i name="e_0_energy">   -427.43853858 </i>
   </energy>
  </scstep>
  <scstep>
   <time name="dav">  173.26  173.41</time>
   <time name="total">  178.25  178.41</time>
   <energy>
    <i name="e_fr_energy">   -427.46533126 </i>
    <i name="e_wo_entrp">   -427.41215041 </i>
    <i name="e_0_energy">   -427.43874084 </i>
   </energy>
  </scstep>
  <scstep>
   <time name="dav">  172.92  173.19</time>
   <time name="total">  177.91  178.18</time>
   <energy>
    <i name="e_fr_energy">   -427.46554973 </i>
    <i name="e_wo_entrp">   -427.41236009 </i>
    <i name="e_0_energy">   -427.43895491 </i>
   </energy>
  </scstep>
  <scstep>
   <time name="dav">  159.19  159.25</time>
   <time name="total">  164.18  164.24</time>
   <energy>
    <i name="e_fr_energy">   -427.46576694 </i>
    <i name="e_wo_entrp">   -427.41257680 </i>
    <i name="e_0_energy">   -427.43917187 </i>
   </energy>
  </scstep>
  <scstep>
   <time name="dav">  160.99  161.06</time>
   <time name="total">  165.98  166.04</time>
   <energy>
    <i name="e_fr_energy">   -427.46593622 </i>
    <i name="e_wo_entrp">   -427.41276258 </i>
    <i name="e_0_energy">   -427.43934940 </i>
   </energy>
  </scstep>
  <scstep>
   <time name="dav">  171.24  171.35</time>
   <time name="total">  176.23  176.35</time>
   <energy>
    <i name="e_fr_energy">   -427.46607684 </i>
    <i name="e_wo_entrp">   -427.41292202 </i>
    <i name="e_0_energy">   -427.43949943 </i>
   </energy>
  </scstep>
  <scstep>
   <time name="dav">  167.32  167.42</time>
   <time name="total">  172.33  172.43</time>
   <energy>
    <i name="e_fr_energy">   -427.46617812 </i>
    <i name="e_wo_entrp">   -427.41302562 </i>
    <i name="e_0_energy">   -427.43960187 </i>
   </energy>
  </scstep>
  <scstep>
   <time name="dav">  151.74  151.84</time>
   <time name="total">  157.10  157.20</time>
   <energy>
    <i name="e_fr_energy">   -427.46628119 </i>
    <i name="e_wo_entrp">   -427.41311675 </i>
    <i name="e_0_energy">   -427.43969897 </i>
   </energy>
  </scstep>
  <scstep>
   <time name="dav">  154.54  154.76</time>
   <time name="total">  159.56  159.78</time>
   <energy>
    <i name="e_fr_energy">   -427.46634411 </i>
    <i name="e_wo_entrp">   -427.41316469 </i>
    <i name="e_0_energy">   -427.43975440 </i>
   </energy>
  </scstep>
  <scstep>
   <time name="dav">  124.73  124.87</time>
   <time name="total">  129.78  129.93</time>
   <energy>
    <i name="e_fr_energy">   -427.46637411 </i>
    <i name="e_wo_entrp">   -427.41319265 </i>
    <i name="e_0_energy">   -427.43978338 </i>
   </energy>
  </scstep>
  <scstep>
   <time name="dav">  118.27  118.31</time>
   <time name="total">  123.31  123.37</time>
   <energy>
    <i name="e_fr_energy">   -427.46640194 </i>
    <i name="e_wo_entrp">   -427.41322838 </i>
    <i name="e_0_energy">   -427.43981516 </i>
   </energy>
  </scstep>
  <scstep>
   <time name="dav">  115.55  115.60</time>
   <time name="total">  120.62  120.67</time>
   <energy>
    <i name="e_fr_energy">   -427.46641834 </i>
    <i name="e_wo_entrp">   -427.41324736 </i>
    <i name="e_0_energy">   -427.43983285 </i>
   </energy>
  </scstep>
  <scstep>
   <time name="dav">  115.60  115.66</time>
   <time name="total">  120.64  120.71</time>
   <energy>
    <i name="e_fr_energy">   -427.46642639 </i>
    <i name="e_wo_entrp">   -427.41325697 </i>
    <i name="e_0_energy">   -427.43984168 </i>
   </energy>
  </scstep>
  <scstep>
   <time name="dav">  116.45  116.61</time>
   <time name="total">  121.45  121.61</time>
   <energy>
    <i name="e_fr_energy">   -427.46643372 </i>
    <i name="e_wo_entrp">   -427.41326378 </i>
    <i name="e_0_energy">   -427.43984875 </i>
   </energy>
  </scstep>
  <scstep>
   <time name="dav">  119.20  119.27</time>
   <time name="total">  124.20  124.27</time>
   <energy>
    <i name="e_fr_energy">   -427.46643653 </i>
    <i name="e_wo_entrp">   -427.41326552 </i>
    <i name="e_0_energy">   -427.43985102 </i>
   </energy>
  </scstep>
  <scstep>
   <time name="dav">  116.58  116.67</time>
   <time name="total">  121.58  121.67</time>
   <energy>
    <i name="e_fr_energy">   -427.46643872 </i>
    <i name="e_wo_entrp">   -427.41326675 </i>
    <i name="e_0_energy">   -427.43985273 </i>
   </energy>
  </scstep>
  <scstep>
   <time name="dav">  113.72  114.12</time>
   <time name="total">  114.24  114.64</time>
   <energy>
    <i name="alphaZ">   6463.29446255 </i>
    <i name="ewald"> 664511.47025193 </i>
    <i name="hartreedc">-813303.35042304 </i>
    <i name="XCdc">   4896.83724158 </i>
    <i name="pawpsdc"> 123760.55926076 </i>
    <i name="pawaedc">-139977.64428990 </i>
    <i name="eentropy">     -0.05317187 </i>
    <i name="bandstr">  -4297.41048745 </i>
    <i name="atom"> 157518.83071590 </i>
    <i name="e_fr_energy">   -427.46643955 </i>
    <i name="e_wo_entrp">   -427.41326767 </i>
    <i name="e_0_energy">   -427.43985361 </i>
   </energy>
  </scstep>
  <structure>
   <crystal>
    <varray name="basis" >
     <v>      10.28518105       0.00000000       0.00000000 </v>
     <v>       5.14259052       8.90722807       0.00000000 </v>
     <v>       0.00000000       0.00000000      27.79016876 </v>
    </varray>
    <i name="volume">   2545.92553775 </i>
    <varray name="rec_basis" >
     <v>       0.09722726      -0.05613419       0.00000000 </v>
     <v>       0.00000000       0.11226837       0.00000000 </v>
     <v>       0.00000000       0.00000000       0.03598395 </v>
    </varray>
   </crystal>
   <varray name="positions" >
    <v>       0.00000000       0.00000000       0.22663990 </v>
    <v>       0.00000000       0.50000000       0.22663990 </v>
    <v>       0.50000000       0.00000000       0.22663990 </v>
    <v>       0.50000000       0.50000000       0.22663990 </v>
    <v>       0.00000000       0.25000000       0.22663990 </v>
    <v>       0.00000000       0.75000000       0.22663990 </v>
    <v>       0.50000000       0.25000000       0.22663990 </v>
    <v>       0.50000000       0.75000000       0.22663990 </v>
    <v>       0.25000000       0.00000000       0.22663990 </v>
    <v>       0.25000000       0.50000000       0.22663990 </v>
    <v>       0.75000000       0.00000000       0.22663990 </v>
    <v>       0.75000000       0.50000000       0.22663990 </v>
    <v>       0.25000000       0.25000000       0.22663990 </v>
    <v>       0.25000000       0.75000000       0.22663990 </v>
    <v>       0.75000000       0.25000000       0.22663990 </v>
    <v>       0.75000000       0.75000000       0.22663990 </v>
    <v>       0.16666666       0.16666666       0.30218653 </v>
    <v>       0.16666666       0.66666666       0.30218653 </v>
    <v>       0.66666666       0.16666666       0.30218653 </v>
    <v>       0.66666666       0.66666666       0.30218653 </v>
    <v>       0.16666666       0.41666666       0.30218653 </v>
    <v>       0.16666666       0.91666666       0.30218653 </v>
    <v>       0.66666666       0.41666666       0.30218653 </v>
    <v>       0.66666666       0.91666666       0.30218653 </v>
    <v>       0.41666666       0.16666666       0.30218653 </v>
    <v>       0.41666666       0.66666666       0.30218653 </v>
    <v>       0.91666666       0.16666666       0.30218653 </v>
    <v>       0.91666666       0.66666666       0.30218653 </v>
    <v>       0.41666666       0.41666666       0.30218653 </v>
    <v>       0.41666666       0.91666666       0.30218653 </v>
    <v>       0.91666666       0.41666666       0.30218653 </v>
    <v>       0.91666666       0.91666666       0.30218653 </v>
    <v>       0.08333333       0.08333333       0.37716320 </v>
    <v>       0.08333333       0.58333333       0.37716320 </v>
    <v>       0.58333333       0.08333333       0.37716320 </v>
    <v>       0.58333333       0.58333333       0.37716320 </v>
    <v>       0.08351614       0.33324190       0.37729758 </v>
    <v>       0.08351614       0.83324190       0.37729758 </v>
    <v>       0.58351614       0.33324190       0.37729758 </v>
    <v>       0.58351614       0.83324190       0.37729758 </v>
    <v>       0.33324190       0.08351614       0.37729758 </v>
    <v>       0.33324190       0.58351614       0.37729758 </v>
    <v>       0.83324190       0.08351614       0.37729758 </v>
    <v>       0.83324190       0.58351614       0.37729758 </v>
    <v>       0.33324190       0.33324190       0.37729758 </v>
    <v>       0.33324190       0.83324190       0.37729758 </v>
    <v>       0.83324190       0.33324190       0.37729758 </v>
    <v>       0.83324190       0.83324190       0.37729758 </v>
    <v>       0.00012997       0.00012997       0.45242342 </v>
    <v>       0.00012997       0.50012997       0.45242342 </v>
    <v>       0.50012997       0.00012997       0.45242342 </v>
    <v>       0.50012997       0.50012997       0.45242342 </v>
    <v>       0.00012997       0.24974005       0.45242342 </v>
    <v>       0.00012997       0.74974005       0.45242342 </v>
    <v>       0.50012997       0.24974005       0.45242342 </v>
    <v>       0.50012997       0.74974005       0.45242342 </v>
    <v>       0.24974005       0.00012997       0.45242342 </v>
    <v>       0.24974005       0.50012997       0.45242342 </v>
    <v>       0.74974005       0.00012997       0.45242342 </v>
    <v>       0.74974005       0.50012997       0.45242342 </v>
    <v>       0.25000000       0.25000000       0.45288750 </v>
    <v>       0.25000000       0.75000000       0.45288750 </v>
    <v>       0.75000000       0.25000000       0.45288750 </v>
    <v>       0.75000000       0.75000000       0.45288750 </v>
    <v>       0.16660598       0.16660598       0.52813907 </v>
    <v>       0.16660598       0.66660598       0.52813907 </v>
    <v>       0.66660598       0.16660598       0.52813907 </v>
    <v>       0.66660598       0.66660598       0.52813907 </v>
    <v>       0.16660598       0.41678801       0.52813907 </v>
    <v>       0.16660598       0.91678801       0.52813907 </v>
    <v>       0.66660598       0.41678801       0.52813907 </v>
    <v>       0.66660598       0.91678801       0.52813907 </v>
    <v>       0.41678801       0.16660598       0.52813907 </v>
    <v>       0.41678801       0.66660598       0.52813907 </v>
    <v>       0.91678801       0.16660598       0.52813907 </v>
    <v>       0.91678801       0.66660598       0.52813907 </v>
    <v>       0.41666666       0.41666666       0.52741939 </v>
    <v>       0.41666666       0.91666666       0.52741939 </v>
    <v>       0.91666666       0.41666666       0.52741939 </v>
    <v>       0.91666666       0.91666666       0.52741939 </v>
    <v>       0.08333333       0.08333333       0.60253339 </v>
    <v>       0.08333333       0.58333333       0.60253339 </v>
    <v>       0.58333333       0.08333333       0.60253339 </v>
    <v>       0.58333333       0.58333333       0.60253339 </v>
    <v>       0.08130935       0.33434529       0.60320464 </v>
    <v>       0.08130935       0.83434529       0.60320464 </v>
    <v>       0.58130935       0.33434529       0.60320464 </v>
    <v>       0.58130935       0.83434529       0.60320464 </v>
    <v>       0.33434529       0.08130935       0.60320464 </v>
    <v>       0.33434529       0.58130935       0.60320464 </v>
    <v>       0.83434529       0.08130935       0.60320464 </v>
    <v>       0.83434529       0.58130935       0.60320464 </v>
    <v>       0.33434529       0.33434529       0.60320464 </v>
    <v>       0.33434529       0.83434529       0.60320464 </v>
    <v>       0.83434529       0.33434529       0.60320464 </v>
    <v>       0.83434529       0.83434529       0.60320464 </v>
    <v>       0.49852148       0.49714648       0.68108137 </v>
    <v>       0.49714648       0.99714648       0.68057248 </v>
    <v>       0.99714648       0.49714648       0.68057248 </v>
    <v>       0.99714648       0.99714648       0.68057248 </v>
    <v>       0.49714648       0.25570704       0.68057248 </v>
    <v>       0.49714648       0.75570704       0.68057248 </v>
    <v>       0.99714648       0.25570704       0.68057248 </v>
    <v>       0.99714648       0.75570704       0.68057248 </v>
    <v>       0.25570704       0.49714648       0.68057248 </v>
    <v>       0.25570704       0.99714648       0.68057248 </v>
    <v>       0.75570704       0.49714648       0.68057248 </v>
    <v>       0.75570704       0.99714648       0.68057248 </v>
    <v>       0.25000000       0.25000000       0.67480871 </v>
    <v>       0.25000000       0.75000000       0.67480871 </v>
    <v>       0.75000000       0.25000000       0.67480871 </v>
    <v>       0.75000000       0.75000000       0.67480871 </v>
    <v>       0.08333333       0.08333333       0.72043888 </v>
    <v>       0.08333333       0.58333333       0.72043888 </v>
    <v>       0.58333333       0.08333333       0.72043888 </v>
    <v>       0.58333333       0.58333333       0.72043888 </v>
   </varray>
  </structure>
  <varray name="forces" >
   <v>       0.00787739       0.00457636       0.07176013 </v>
   <v>       0.00786652       0.00458197       0.07167799 </v>
   <v>       0.00792033       0.00450910       0.07168668 </v>
   <v>       0.00793029       0.00462460       0.07144167 </v>
   <v>       0.00005234      -0.00912143       0.07162680 </v>
   <v>       0.00003879      -0.00916227       0.07159664 </v>
   <v>       0.00000409      -0.00918255       0.07179116 </v>
   <v>      -0.00008697      -0.00913075       0.07168572 </v>
   <v>      -0.00785993       0.00459765       0.07169088 </v>
   <v>      -0.00786554       0.00464596       0.07183334 </v>
   <v>      -0.00794867       0.00457071       0.07159107 </v>
   <v>      -0.00795910       0.00447761       0.07178431 </v>
   <v>      -0.00000637       0.00000141       0.08636471 </v>
   <v>      -0.00008266      -0.00006561       0.08645737 </v>
   <v>      -0.00006528      -0.00003832       0.08638068 </v>
   <v>       0.00005929       0.00008076       0.08629401 </v>
   <v>       0.00701008       0.00408974      -0.08006007 </v>
   <v>       0.00711257       0.00398356      -0.08001558 </v>
   <v>       0.00700021       0.00415588      -0.08003201 </v>
   <v>       0.00696360       0.00402797      -0.07989370 </v>
   <v>       0.00006749      -0.00800859      -0.07991841 </v>
   <v>      -0.00011011      -0.00804672      -0.07990413 </v>
   <v>       0.00006687      -0.00803681      -0.08002172 </v>
   <v>      -0.00005785      -0.00818121      -0.07991575 </v>
   <v>      -0.00689066       0.00404963      -0.07992324 </v>
   <v>      -0.00698764       0.00408151      -0.08004408 </v>
   <v>      -0.00701975       0.00389380      -0.07986728 </v>
   <v>      -0.00704784       0.00401487      -0.07993973 </v>
   <v>      -0.00006726       0.00001119      -0.05912994 </v>
   <v>      -0.00000437       0.00004941      -0.05923597 </v>
   <v>       0.00002037      -0.00005477      -0.05924016 </v>
   <v>       0.00000550       0.00000563      -0.05925594 </v>
   <v>      -0.00005595      -0.00004834       0.00008653 </v>
   <v>       0.00011341      -0.00002251      -0.00013299 </v>
   <v>       0.00002242       0.00005874      -0.00012130 </v>
   <v>      -0.00005868      -0.00006246       0.00010067 </v>
   <v>      -0.00001507      -0.00006243       0.00010479 </v>
   <v>       0.00000176       0.00001204      -0.00002946 </v>
   <v>       0.00011510      -0.00010297      -0.00002191 </v>
   <v>       0.00008560       0.00007035      -0.00015666 </v>
   <v>      -0.00005352      -0.00000882       0.00001422 </v>
   <v>      -0.00006319       0.00016731      -0.00005805 </v>
   <v>       0.00001026      -0.00000218      -0.00000134 </v>
   <v>       0.00007052       0.00006387      -0.00017398 </v>
   <v>      -0.00004998       0.00002067      -0.00000393 </v>
   <v>       0.00003628      -0.00005880      -0.00018074 </v>
   <v>      -0.00006729       0.00008466      -0.00016173 </v>
   <v>      -0.00003153      -0.00001297       0.00002569 </v>
   <v>       0.00007565       0.00004858      -0.00000353 </v>
   <v>      -0.00001564      -0.00003435      -0.00006315 </v>
   <v>       0.00002571       0.00003930      -0.00002412 </v>
   <v>      -0.00003559      -0.00004948       0.00001444 </v>
   <v>      -0.00020318       0.00004199       0.00010046 </v>
   <v>       0.00009401      -0.00018987       0.00019833 </v>
   <v>       0.00005780      -0.00008211      -0.00004616 </v>
   <v>       0.00003785       0.00005762       0.00007178 </v>
   <v>      -0.00006382      -0.00022210       0.00009311 </v>
   <v>      -0.00002386       0.00016541       0.00008368 </v>
   <v>      -0.00010586       0.00007263       0.00025794 </v>
   <v>       0.00008555       0.00004713       0.00009007 </v>
   <v>       0.00014942       0.00004032       0.00000322 </v>
   <v>       0.00002785       0.00010843       0.00011638 </v>
   <v>       0.00008449      -0.00003285       0.00005429 </v>
   <v>      -0.00015818      -0.00008550       0.00016545 </v>
   <v>       0.00002937      -0.00005706      -0.00012493 </v>
   <v>      -0.00007409       0.00004449      -0.00016084 </v>
   <v>      -0.00007186       0.00012595      -0.00006486 </v>
   <v>      -0.00000845       0.00000740       0.00021557 </v>
   <v>      -0.00032952      -0.00006423      -0.00011582 </v>
   <v>      -0.00016370       0.00019188      -0.00026425 </v>
   <v>      -0.00022435       0.00011084       0.00041921 </v>
   <v>       0.00000179       0.00008170       0.00006258 </v>
   <v>      -0.00007573      -0.00020755      -0.00008914 </v>
   <v>       0.00018252      -0.00037008       0.00049598 </v>
   <v>      -0.00002523      -0.00016135      -0.00004981 </v>
   <v>       0.00005354      -0.00002857       0.00015805 </v>
   <v>       0.00013689      -0.00008653       0.00100040 </v>
   <v>       0.00010105       0.00008240      -0.00014624 </v>
   <v>       0.00007762       0.00010745      -0.00001819 </v>
   <v>       0.00009139       0.00001832      -0.00012439 </v>
   <v>      -0.00004211       0.00018812      -0.00005789 </v>
   <v>       0.00123889      -0.00019538       0.00036989 </v>
   <v>       0.00005857       0.00017034      -0.00009216 </v>
   <v>      -0.00391077      -0.00155739       0.00257177 </v>
   <v>       0.00019921      -0.00027878      -0.00046781 </v>
   <v>       0.00061321      -0.00078021       0.00022804 </v>
   <v>      -0.00239091       0.01057948       0.01417652 </v>
   <v>      -0.00018951      -0.00059103       0.00008824 </v>
   <v>      -0.00005525       0.00053519      -0.00067420 </v>
   <v>       0.01226071      -0.00785074       0.02057161 </v>
   <v>      -0.00002600       0.00002369      -0.00039526 </v>
   <v>      -0.00027814       0.00023790       0.00006962 </v>
   <v>       0.00098107       0.00089486       0.00062816 </v>
   <v>      -0.00037698      -0.00001185      -0.00046632 </v>
   <v>       0.00028123      -0.00047454      -0.00083670 </v>
   <v>       0.00022624       0.00027359      -0.00079062 </v>
   <v>      -0.19946543      -0.07445673      -0.12738350 </v>
   <v>      -0.00032386      -0.00005927      -0.00073042 </v>
   <v>      -0.00068972       0.00008887      -0.00067703 </v>
   <v>      -0.00036046      -0.00042937      -0.00138428 </v>
   <v>       0.00935338       0.02020878      -0.00377698 </v>
   <v>       0.00548743       0.02255344      -0.01158151 </v>
   <v>       0.00079634      -0.00064976      -0.00102191 </v>
   <v>       0.00045462      -0.00054330      -0.00075441 </v>
   <v>       0.03658470      -0.00346253      -0.00412041 </v>
   <v>      -0.00013468       0.00027801      -0.00080703 </v>
   <v>       0.03187865      -0.00684728      -0.01226788 </v>
   <v>      -0.00024084      -0.00006909      -0.00091732 </v>
   <v>       0.00044021       0.00031342      -0.00034044 </v>
   <v>       0.00411425      -0.01065720      -0.00166937 </v>
   <v>       0.00280086      -0.00927542      -0.00185237 </v>
   <v>       0.00117238       0.00033214      -0.00090683 </v>
   <v>       0.00018249       0.00049474       0.00244432 </v>
   <v>       0.00201588       0.00173698       0.00223977 </v>
   <v>       0.00064452      -0.00100430       0.00234664 </v>
   <v>       0.09697051       0.06046801       0.11737732 </v>
  </varray>
  <varray name="stress" >
   <v>      -2.01998100       0.05170682       0.05591072 </v>
   <v>       0.05170681      -2.05237179       0.04303527 </v>
   <v>       0.05591071       0.04303525      -2.15478005 </v>
  </varray>
  <energy>
   <i name="e_fr_energy">   -427.46643955 </i>
   <i name="e_wo_entrp">   -427.43985361 </i>
   <i name="e_0_energy">     -0.05317187 </i>
  </energy>
  <time name="totalsc"> 6986.63 7002.67</time>
  <eigenvalues>
   <array>
    <dimension dim="1">band</dimension>
    <dimension dim="2">kpoint</dimension>
    <dimension dim="3">spin</dimension>
    <field>eigene</field>
    <field>occ</field>
    <set>
     <set comment="spin 1">
      <set comment="kpoint 1">
       <r>  -18.6483    1.0000 </r>
       <r>  -18.6017    1.0000 </r>
       <r>  -18.5928    1.0000 </r>
       <r>  -18.5926    1.0000 </r>
       <r>   -9.4516    1.0000 </r>
       <r>   -8.9590    1.0000 </r>
       <r>   -8.1722    1.0000 </r>
       <r>   -7.5981    1.0000 </r>
       <r>   -7.5980    1.0000 </r>
       <r>   -7.5971    1.0000 </r>
       <r>   -7.5760    1.0000 </r>
       <r>   -7.5759    1.0000 </r>
       <r>   -7.5758    1.0000 </r>
       <r>   -7.2187    1.0000 </r>
       <r>   -7.2181    1.0000 </r>
       <r>   -7.2165    1.0000 </r>
       <r>   -7.1985    1.0000 </r>
       <r>   -7.1442    1.0000 </r>
       <r>   -7.1440    1.0000 </r>
       <r>   -7.1437    1.0000 </r>
       <r>   -6.6274    1.0000 </r>
       <r>   -6.6262    1.0000 </r>
       <r>   -6.6250    1.0000 </r>
       <r>   -6.4847    1.0000 </r>
       <r>   -6.4839    1.0000 </r>
       <r>   -6.4836    1.0000 </r>
       <r>   -6.2509    1.0000 </r>
       <r>   -5.9510    1.0000 </r>
       <r>   -5.9502    1.0000 </r>
       <r>   -5.9470    1.0000 </r>
       <r>   -5.7438    1.0000 </r>
       <r>   -5.7404    1.0000 </r>
       <r>   -5.7402    1.0000 </r>
       <r>   -5.6696    1.0000 </r>
       <r>   -5.6336    1.0000 </r>
       <r>   -5.6322    1.0000 </r>
       <r>   -5.4384    1.0000 </r>
       <r>   -5.4279    1.0000 </r>
       <r>   -5.4235    1.0000 </r>
       <r>   -5.4086    1.0000 </r>
       <r>   -5.3443    1.0000 </r>
       <r>   -5.3437    1.0000 </r>
       <r>   -5.3404    1.0000 </r>
       <r>   -5.3230    1.0000 </r>
       <r>   -5.2821    1.0000 </r>
       <r>   -5.2821    1.0000 </r>
       <r>   -5.2250    1.0000 </r>
       <r>   -5.2129    1.0000 </r>
       <r>   -5.2072    1.0000 </r>
       <r>   -5.2071    1.0000 </r>
       <r>   -5.1328    1.0000 </r>
       <r>   -5.1327    1.0000 </r>
       <r>   -5.1220    1.0000 </r>
       <r>   -5.0546    1.0000 </r>
       <r>   -5.0324    1.0000 </r>
       <r>   -5.0323    1.0000 </r>
       <r>   -5.0027    1.0000 </r>
       <r>   -5.0022    1.0000 </r>
       <r>   -5.0021    1.0000 </r>
       <r>   -4.9765    1.0000 </r>
       <r>   -4.9764    1.0000 </r>
       <r>   -4.9762    1.0000 </r>
       <r>   -4.9613    1.0000 </r>
       <r>   -4.9611    1.0000 </r>
       <r>   -4.9560    1.0000 </r>
       <r>   -4.9557    1.0000 </r>
       <r>   -4.9554    1.0000 </r>
       <r>   -4.9344    1.0000 </r>
       <r>   -4.8814    1.0000 </r>
       <r>   -4.8811    1.0000 </r>
       <r>   -4.8806    1.0000 </r>
       <r>   -4.8528    1.0000 </r>
       <r>   -4.8527    1.0000 </r>
       <r>   -4.8526    1.0000 </r>
       <r>   -4.8391    1.0000 </r>
       <r>   -4.8234    1.0000 </r>
       <r>   -4.8233    1.0000 </r>
       <r>   -4.8135    1.0000 </r>
       <r>   -4.8111    1.0000 </r>
       <r>   -4.8108    1.0000 </r>
       <r>   -4.7481    1.0000 </r>
       <r>   -4.7477    1.0000 </r>
       <r>   -4.7473    1.0000 </r>
       <r>   -4.7056    1.0000 </r>
       <r>   -4.7052    1.0000 </r>
       <r>   -4.7051    1.0000 </r>
       <r>   -4.7015    1.0000 </r>
       <r>   -4.6930    1.0000 </r>
       <r>   -4.6929    1.0000 </r>
       <r>   -4.6205    1.0000 </r>
       <r>   -4.6200    1.0000 </r>
       <r>   -4.6191    1.0000 </r>
       <r>   -4.5850    1.0000 </r>
       <r>   -4.5845    1.0000 </r>
       <r>   -4.5844    1.0000 </r>
       <r>   -4.5806    1.0000 </r>
       <r>   -4.5768    1.0000 </r>
       <r>   -4.5768    1.0000 </r>
       <r>   -4.5442    1.0000 </r>
       <r>   -4.5379    1.0000 </r>
       <r>   -4.5377    1.0000 </r>
       <r>   -4.5373    1.0000 </r>
       <r>   -4.5371    1.0000 </r>
       <r>   -4.5370    1.0000 </r>
       <r>   -4.5269    1.0000 </r>
       <r>   -4.5267    1.0000 </r>
       <r>   -4.5266    1.0000 </r>
       <r>   -4.5026    1.0000 </r>
       <r>   -4.5025    1.0000 </r>
       <r>   -4.5020    1.0000 </r>
       <r>   -4.4593    1.0000 </r>
       <r>   -4.4591    1.0000 </r>
       <r>   -4.4591    1.0000 </r>
       <r>   -4.4533    1.0000 </r>
       <r>   -4.4533    1.0000 </r>
       <r>   -4.4533    1.0000 </r>
       <r>   -4.4458    1.0000 </r>
       <r>   -4.4452    1.0000 </r>
       <r>   -4.4450    1.0000 </r>
       <r>   -4.4071    1.0000 </r>
       <r>   -4.4068    1.0000 </r>
       <r>   -4.4038    1.0000 </r>
       <r>   -4.3890    1.0000 </r>
       <r>   -4.3876    1.0000 </r>
       <r>   -4.3509    1.0000 </r>
       <r>   -4.3488    1.0000 </r>
       <r>   -4.3481    1.0000 </r>
       <r>   -4.3358    1.0000 </r>
       <r>   -4.2435    1.0000 </r>
       <r>   -4.2412    1.0000 </r>
       <r>   -4.2273    1.0000 </r>
       <r>   -4.2272    1.0000 </r>
       <r>   -4.2270    1.0000 </r>
       <r>   -4.2183    1.0000 </r>
       <r>   -4.2182    1.0000 </r>
       <r>   -4.2179    1.0000 </r>
       <r>   -4.2162    1.0000 </r>
       <r>   -4.2161    1.0000 </r>
       <r>   -4.2158    1.0000 </r>
       <r>   -4.2128    1.0000 </r>
       <r>   -4.2127    1.0000 </r>
       <r>   -4.2126    1.0000 </r>
       <r>   -4.2102    1.0000 </r>
       <r>   -4.2099    1.0000 </r>
       <r>   -4.2097    1.0000 </r>
       <r>   -4.1786    1.0000 </r>
       <r>   -4.1784    1.0000 </r>
       <r>   -4.1780    1.0000 </r>
       <r>   -4.0958    1.0000 </r>
       <r>   -4.0956    1.0000 </r>
       <r>   -4.0952    1.0000 </r>
       <r>   -4.0778    1.0000 </r>
       <r>   -4.0776    1.0000 </r>
       <r>   -4.0768    1.0000 </r>
       <r>   -4.0750    1.0000 </r>
       <r>   -4.0749    1.0000 </r>
       <r>   -4.0744    1.0000 </r>
       <r>   -4.0553    1.0000 </r>
       <r>   -4.0552    1.0000 </r>
       <r>   -4.0550    1.0000 </r>
       <r>   -4.0431    1.0000 </r>
       <r>   -4.0428    1.0000 </r>
       <r>   -4.0421    1.0000 </r>
       <r>   -4.0154    1.0000 </r>
       <r>   -4.0036    1.0000 </r>
       <r>   -4.0033    1.0000 </r>
       <r>   -4.0029    1.0000 </r>
       <r>   -3.9689    1.0000 </r>
       <r>   -3.9679    1.0000 </r>
       <r>   -3.9369    1.0000 </r>
       <r>   -3.9367    1.0000 </r>
       <r>   -3.9366    1.0000 </r>
       <r>   -3.9278    1.0000 </r>
       <r>   -3.9278    1.0000 </r>
       <r>   -3.9271    1.0000 </r>
       <r>   -3.9081    1.0000 </r>
       <r>   -3.9080    1.0000 </r>
       <r>   -3.9073    1.0000 </r>
       <r>   -3.8783    1.0000 </r>
       <r>   -3.8780    1.0000 </r>
       <r>   -3.8779    1.0000 </r>
       <r>   -3.8759    1.0000 </r>
       <r>   -3.8751    1.0000 </r>
       <r>   -3.8741    1.0000 </r>
       <r>   -3.8327    1.0000 </r>
       <r>   -3.8299    1.0000 </r>
       <r>   -3.8297    1.0000 </r>
       <r>   -3.8291    1.0000 </r>
       <r>   -3.8108    1.0000 </r>
       <r>   -3.8108    1.0000 </r>
       <r>   -3.8105    1.0000 </r>
       <r>   -3.7970    1.0000 </r>
       <r>   -3.7969    1.0000 </r>
       <r>   -3.7968    1.0000 </r>
       <r>   -3.7851    1.0000 </r>
       <r>   -3.7850    1.0000 </r>
       <r>   -3.7845    1.0000 </r>
       <r>   -3.7736    1.0000 </r>
       <r>   -3.7734    1.0000 </r>
       <r>   -3.7730    1.0000 </r>
       <r>   -3.7496    1.0000 </r>
       <r>   -3.7493    1.0000 </r>
       <r>   -3.7484    1.0000 </r>
       <r>   -3.7076    1.0000 </r>
       <r>   -3.7075    1.0000 </r>
       <r>   -3.7074    1.0000 </r>
       <r>   -3.7057    1.0000 </r>
       <r>   -3.7056    1.0000 </r>
       <r>   -3.7056    1.0000 </r>
       <r>   -3.6813    1.0000 </r>
       <r>   -3.6811    1.0000 </r>
       <r>   -3.6799    1.0000 </r>
       <r>   -3.6755    1.0000 </r>
       <r>   -3.6754    1.0000 </r>
       <r>   -3.6753    1.0000 </r>
       <r>   -3.6676    1.0000 </r>
       <r>   -3.6674    1.0000 </r>
       <r>   -3.6405    1.0000 </r>
       <r>   -3.6395    1.0000 </r>
       <r>   -3.6367    1.0000 </r>
       <r>   -3.6165    1.0000 </r>
       <r>   -3.6146    1.0000 </r>
       <r>   -3.6143    1.0000 </r>
       <r>   -3.6128    1.0000 </r>
       <r>   -3.6016    1.0000 </r>
       <r>   -3.6013    1.0000 </r>
       <r>   -3.6004    1.0000 </r>
       <r>   -3.5997    1.0000 </r>
       <r>   -3.5995    1.0000 </r>
       <r>   -3.5991    1.0000 </r>
       <r>   -3.5960    1.0000 </r>
       <r>   -3.5959    1.0000 </r>
       <r>   -3.5956    1.0000 </r>
       <r>   -3.5801    1.0000 </r>
       <r>   -3.5798    1.0000 </r>
       <r>   -3.5796    1.0000 </r>
       <r>   -3.5500    1.0000 </r>
       <r>   -3.5486    1.0000 </r>
       <r>   -3.5479    1.0000 </r>
       <r>   -3.5361    1.0000 </r>
       <r>   -3.5291    1.0000 </r>
       <r>   -3.5106    1.0000 </r>
       <r>   -3.5105    1.0000 </r>
       <r>   -3.4472    1.0000 </r>
       <r>   -3.4464    1.0000 </r>
       <r>   -3.4461    1.0000 </r>
       <r>   -3.4409    1.0000 </r>
       <r>   -3.4325    1.0000 </r>
       <r>   -3.4324    1.0000 </r>
       <r>   -3.4322    1.0000 </r>
       <r>   -3.4269    1.0000 </r>
       <r>   -3.4267    1.0000 </r>
       <r>   -3.4267    1.0000 </r>
       <r>   -3.4199    1.0000 </r>
       <r>   -3.4178    1.0000 </r>
       <r>   -3.4175    1.0000 </r>
       <r>   -3.4169    1.0000 </r>
       <r>   -3.4168    1.0000 </r>
       <r>   -3.4144    1.0000 </r>
       <r>   -3.4143    1.0000 </r>
       <r>   -3.4142    1.0000 </r>
       <r>   -3.4089    1.0000 </r>
       <r>   -3.3981    1.0000 </r>
       <r>   -3.3970    1.0000 </r>
       <r>   -3.3969    1.0000 </r>
       <r>   -3.3851    1.0000 </r>
       <r>   -3.3850    1.0000 </r>
       <r>   -3.3740    1.0000 </r>
       <r>   -3.3618    1.0000 </r>
       <r>   -3.3618    1.0000 </r>
       <r>   -3.3606    1.0000 </r>
       <r>   -3.3493    1.0000 </r>
       <r>   -3.3486    1.0000 </r>
       <r>   -3.3485    1.0000 </r>
       <r>   -3.3465    1.0000 </r>
       <r>   -3.3432    1.0000 </r>
       <r>   -3.3361    1.0000 </r>
       <r>   -3.3348    1.0000 </r>
       <r>   -3.3339    1.0000 </r>
       <r>   -3.3136    1.0000 </r>
       <r>   -3.3135    1.0000 </r>
       <r>   -3.3042    1.0000 </r>
       <r>   -3.3035    1.0000 </r>
       <r>   -3.3030    1.0000 </r>
       <r>   -3.2717    1.0000 </r>
       <r>   -3.2713    1.0000 </r>
       <r>   -3.2710    1.0000 </r>
       <r>   -3.2670    1.0000 </r>
       <r>   -3.2669    1.0000 </r>
       <r>   -3.2578    1.0000 </r>
       <r>   -3.2577    1.0000 </r>
       <r>   -3.2546    1.0000 </r>
[...]
       <r>   -14.5573     0.0000     8.0000 </r>
       <r>   -14.4630     0.0000     8.0000 </r>
       <r>   -14.3687     0.0000     8.0000 </r>
       <r>   -14.2743     0.0000     8.0000 </r>
       <r>   -14.1800     0.0000     8.0000 </r>
       <r>   -14.0856     0.0000     8.0000 </r>
       <r>   -13.9913     0.0000     8.0000 </r>
       <r>   -13.8970     0.0000     8.0000 </r>
       <r>   -13.8026     0.0000     8.0000 </r>
       <r>   -13.7083     0.0000     8.0000 </r>
       <r>   -13.6139     0.0000     8.0000 </r>
       <r>   -13.5196     0.0000     8.0000 </r>
       <r>   -13.4252     0.0000     8.0000 </r>
       <r>   -13.3309     0.0000     8.0000 </r>
       <r>   -13.2366     0.0000     8.0000 </r>
       <r>   -13.1422     0.0000     8.0000 </r>
       <r>   -13.0479     0.0000     8.0000 </r>
       <r>   -12.9535     0.0000     8.0000 </r>
       <r>   -12.8592     0.0000     8.0000 </r>
       <r>   -12.7649     0.0000     8.0000 </r>
       <r>   -12.6705     0.0000     8.0000 </r>
       <r>   -12.5762     0.0000     8.0000 </r>
       <r>   -12.4818     0.0000     8.0000 </r>
       <r>   -12.3875     0.0000     8.0000 </r>
       <r>   -12.2931     0.0000     8.0000 </r>
       <r>   -12.1988     0.0000     8.0000 </r>
       <r>   -12.1045     0.0000     8.0000 </r>
       <r>   -12.0101     0.0000     8.0000 </r>
       <r>   -11.9158     0.0000     8.0000 </r>
       <r>   -11.8214     0.0000     8.0000 </r>
       <r>   -11.7271     0.0000     8.0000 </r>
       <r>   -11.6328     0.0000     8.0000 </r>
       <r>   -11.5384     0.0000     8.0000 </r>
       <r>   -11.4441     0.0000     8.0000 </r>
       <r>   -11.3497     0.0000     8.0000 </r>
       <r>   -11.2554     0.0000     8.0000 </r>
       <r>   -11.1610     0.0000     8.0000 </r>
       <r>   -11.0667     0.0000     8.0000 </r>
       <r>   -10.9724     0.0000     8.0000 </r>
       <r>   -10.8780     0.0000     8.0000 </r>
       <r>   -10.7837     0.0000     8.0000 </r>
       <r>   -10.6893     0.0000     8.0000 </r>
       <r>   -10.5950     0.0000     8.0000 </r>
       <r>   -10.5007     0.0000     8.0000 </r>
       <r>   -10.4063     0.0000     8.0000 </r>
       <r>   -10.3120     0.0000     8.0000 </r>
       <r>   -10.2176     0.0000     8.0000 </r>
       <r>   -10.1233     0.0000     8.0000 </r>
       <r>   -10.0289     0.0000     8.0000 </r>
       <r>    -9.9346     0.0000     8.0000 </r>
       <r>    -9.8403     0.0000     8.0000 </r>
       <r>    -9.7459     0.0000     8.0000 </r>
       <r>    -9.6516     0.0000     8.0000 </r>
       <r>    -9.5572     0.0019     8.0002 </r>
       <r>    -9.4629     0.4958     8.0470 </r>
       <r>    -9.3686     1.8055     8.2173 </r>
       <r>    -9.2742     6.4569     8.8264 </r>
       <r>    -9.1799     0.5379     8.8772 </r>
       <r>    -9.0855     3.6808     9.2244 </r>
       <r>    -8.9912     6.0181     9.7922 </r>
       <r>    -8.8968     7.5743    10.5068 </r>
       <r>    -8.8025     6.6635    11.1354 </r>
       <r>    -8.7082     1.2445    11.2528 </r>
       <r>    -8.6138     8.6838    12.0721 </r>
       <r>    -8.5195    16.1431    13.5950 </r>
       <r>    -8.4251     6.9835    14.2539 </r>
       <r>    -8.3308     6.7537    14.8910 </r>
       <r>    -8.2364     1.2437    15.0084 </r>
       <r>    -8.1421     8.3110    15.7924 </r>
       <r>    -8.0478    15.4895    17.2538 </r>
       <r>    -7.9534    12.0147    18.3872 </r>
       <r>    -7.8591    21.4686    20.4126 </r>
       <r>    -7.7647     8.3995    21.2050 </r>
       <r>    -7.6704     6.7775    21.8444 </r>
       <r>    -7.5761    10.1297    22.8001 </r>
       <r>    -7.4817    14.7333    24.1901 </r>
       <r>    -7.3874    18.2736    25.9140 </r>
       <r>    -7.2930     7.9057    26.6599 </r>
       <r>    -7.1987    20.4013    28.5846 </r>
       <r>    -7.1043    14.5967    29.9616 </r>
       <r>    -7.0100    18.0780    31.6671 </r>
       <r>    -6.9157    10.3418    32.6428 </r>
       <r>    -6.8213    32.1288    35.6739 </r>
       <r>    -6.7270    17.2021    37.2968 </r>
       <r>    -6.6326    20.9963    39.2776 </r>
       <r>    -6.5383    10.4826    40.2665 </r>
       <r>    -6.4440    23.2736    42.4622 </r>
       <r>    -6.3496    25.6568    44.8827 </r>
       <r>    -6.2553    16.1624    46.4075 </r>
       <r>    -6.1609    44.6707    50.6218 </r>
       <r>    -6.0666    24.3755    52.9214 </r>
       <r>    -5.9722    40.4985    56.7421 </r>
       <r>    -5.8779    29.2580    59.5024 </r>
       <r>    -5.7836    15.1605    60.9327 </r>
       <r>    -5.6892    53.5082    65.9807 </r>
       <r>    -5.5949    84.2553    73.9295 </r>
       <r>    -5.5005    78.7264    81.3567 </r>
       <r>    -5.4062    58.7523    86.8995 </r>
       <r>    -5.3119    88.3871    95.2381 </r>
       <r>    -5.2175    89.7359   103.7039 </r>
       <r>    -5.1232   104.0971   113.5246 </r>
       <r>    -5.0288   115.6327   124.4336 </r>
       <r>    -4.9345   139.0035   137.5474 </r>
       <r>    -4.8401   133.5310   150.1450 </r>
       <r>    -4.7458   128.2217   162.2417 </r>
       <r>    -4.6515   149.0345   176.3018 </r>
       <r>    -4.5571   202.9233   195.4460 </r>
       <r>    -4.4628   227.3781   216.8972 </r>
       <r>    -4.3684   279.9036   243.3038 </r>
       <r>    -4.2741   268.6140   268.6453 </r>
       <r>    -4.1798   218.0747   289.2188 </r>
       <r>    -4.0854   214.3041   309.4367 </r>
       <r>    -3.9911   201.0932   328.4081 </r>
       <r>    -3.8967   278.6826   354.6995 </r>
       <r>    -3.8024   271.8497   380.3463 </r>
       <r>    -3.7080   307.5930   409.3652 </r>
       <r>    -3.6137   325.5595   440.0790 </r>
       <r>    -3.5194   323.4655   470.5953 </r>
       <r>    -3.4250   372.9860   505.7835 </r>
       <r>    -3.3307   464.5735   549.6121 </r>
       <r>    -3.2363   508.2282   597.5592 </r>
       <r>    -3.1420   451.6896   640.1724 </r>
       <r>    -3.0477   451.6179   682.7788 </r>
       <r>    -2.9533   344.1107   715.2428 </r>
       <r>    -2.8590   355.3607   748.7682 </r>
       <r>    -2.7646   349.7263   781.7620 </r>
       <r>    -2.6703   392.7089   818.8108 </r>
       <r>    -2.5759   424.4651   858.8556 </r>
       <r>    -2.4816   380.0579   894.7109 </r>
       <r>    -2.3873   425.4138   934.8452 </r>
       <r>    -2.2929   426.7846   975.1088 </r>
       <r>    -2.1986   426.3831  1015.3345 </r>
       <r>    -2.1042   516.2116  1064.0348 </r>
       <r>    -2.0099   609.6971  1121.5547 </r>
       <r>    -1.9156   483.8488  1167.2018 </r>
       <r>    -1.8212   194.5992  1185.5606 </r>
       <r>    -1.7269    79.1209  1193.0250 </r>
       <r>    -1.6325    49.7862  1197.7219 </r>
       <r>    -1.5382    59.5943  1203.3442 </r>
       <r>    -1.4438    55.0702  1208.5396 </r>
       <r>    -1.3495    92.1585  1217.2340 </r>
       <r>    -1.2552    60.7510  1222.9653 </r>
       <r>    -1.1608    41.1287  1226.8455 </r>
       <r>    -1.0665    12.3517  1228.0108 </r>
       <r>    -0.9721    42.8652  1232.0547 </r>
       <r>    -0.8778    39.2734  1235.7599 </r>
       <r>    -0.7835    45.7484  1240.0758 </r>
       <r>    -0.6891    40.4587  1243.8928 </r>
       <r>    -0.5948    64.6796  1249.9948 </r>
       <r>    -0.5004    21.9951  1252.0698 </r>
       <r>    -0.4061    30.9102  1254.9860 </r>
       <r>    -0.3117    39.1291  1258.6775 </r>
       <r>    -0.2174    39.9346  1262.4450 </r>
       <r>    -0.1231    26.4659  1264.9418 </r>
       <r>    -0.0287    33.0430  1268.0591 </r>
       <r>     0.0656    46.7381  1272.4685 </r>
       <r>     0.1600    45.5815  1276.7687 </r>
       <r>     0.2543    14.6751  1278.1532 </r>
       <r>     0.3486    24.3531  1280.4507 </r>
       <r>     0.4430    41.3473  1284.3515 </r>
       <r>     0.5373    35.3049  1287.6822 </r>
       <r>     0.6317    28.1746  1290.3403 </r>
       <r>     0.7260    51.0406  1295.1555 </r>
       <r>     0.8204    39.2933  1298.8625 </r>
       <r>     0.9147    31.7233  1301.8554 </r>
       <r>     1.0090    28.6517  1304.5584 </r>
       <r>     1.1034    27.7932  1307.1805 </r>
       <r>     1.1977    47.2395  1311.6371 </r>
       <r>     1.2921    22.9688  1313.8040 </r>
       <r>     1.3864    17.9619  1315.4986 </r>
       <r>     1.4807    37.1432  1319.0028 </r>
       <r>     1.5751    31.1524  1321.9417 </r>
       <r>     1.6694    30.1142  1324.7828 </r>
       <r>     1.7638    19.7721  1326.6481 </r>
       <r>     1.8581    39.2557  1330.3515 </r>
       <r>     1.9525    37.8376  1333.9212 </r>
       <r>     2.0468    40.4877  1337.7409 </r>
       <r>     2.1411    24.1507  1340.0193 </r>
       <r>     2.2355    38.0853  1343.6123 </r>
       <r>     2.3298    25.9383  1346.0594 </r>
       <r>     2.4242    21.4295  1348.0811 </r>
       <r>     2.5185    17.0815  1349.6926 </r>
       <r>     2.6128     9.9774  1350.6339 </r>
       <r>     2.7072    19.8984  1352.5111 </r>
       <r>     2.8015    31.8163  1355.5127 </r>
       <r>     2.8959    28.0665  1358.1606 </r>
       <r>     2.9902    28.0129  1360.8034 </r>
       <r>     3.0846    19.6901  1362.6610 </r>
       <r>     3.1789    22.4916  1364.7829 </r>
       <r>     3.2732    22.5763  1366.9128 </r>
       <r>     3.3676     8.1715  1367.6837 </r>
       <r>     3.4619    29.4671  1370.4637 </r>
       <r>     3.5563    32.7026  1373.5489 </r>
       <r>     3.6506    27.6196  1376.1546 </r>
       <r>     3.7450     8.4942  1376.9559 </r>
       <r>     3.8393    19.5303  1378.7985 </r>
       <r>     3.9336    44.0579  1382.9550 </r>
       <r>     4.0280    33.6547  1386.1300 </r>
       <r>     4.1223    39.9215  1389.8963 </r>
       <r>     4.2167    52.7714  1394.8748 </r>
       <r>     4.3110    35.0975  1398.1860 </r>
       <r>     4.4053    19.5226  1400.0278 </r>
       <r>     4.4997    22.2168  1402.1237 </r>
       <r>     4.5940    31.5719  1405.1023 </r>
       <r>     4.6884    37.6198  1408.6514 </r>
       <r>     4.7827    40.5441  1412.4764 </r>
       <r>     4.8771    47.8334  1416.9891 </r>
       <r>     4.9714    38.9298  1420.6618 </r>
       <r>     5.0657    40.1369  1424.4484 </r>
       <r>     5.1601    36.9055  1427.9301 </r>
       <r>     5.2544    28.7980  1430.6469 </r>
       <r>     5.3488    59.3340  1436.2446 </r>
       <r>     5.4431    36.6768  1439.7048 </r>
       <r>     5.5374    54.7119  1444.8664 </r>
       <r>     5.6318    34.3299  1448.1051 </r>
       <r>     5.7261    34.4196  1451.3523 </r>
       <r>     5.8205    33.6013  1454.5223 </r>
       <r>     5.9148    32.6802  1457.6054 </r>
       <r>     6.0092    61.1621  1463.3756 </r>
       <r>     6.1035    54.4460  1468.5121 </r>
       <r>     6.1978    45.1454  1472.7712 </r>
       <r>     6.2922    40.3555  1476.5784 </r>
       <r>     6.3865    36.7221  1480.0428 </r>
       <r>     6.4809    51.0940  1484.8631 </r>
       <r>     6.5752    42.3253  1488.8562 </r>
       <r>     6.6695    35.8048  1492.2341 </r>
       <r>     6.7639    37.5014  1495.7720 </r>
       <r>     6.8582    58.7780  1501.3172 </r>
       <r>     6.9526    49.0653  1505.9461 </r>
       <r>     7.0469    36.5972  1509.3988 </r>
       <r>     7.1413    26.6297  1511.9111 </r>
       <r>     7.2356     0.9426  1512.0000 </r>
       <r>     7.3299     0.0001  1512.0000 </r>
       <r>     7.4243     0.0000  1512.0000 </r>
       <r>     7.5186     0.0000  1512.0000 </r>
       <r>     7.6130     0.0000  1512.0000 </r>
       <r>     7.7073     0.0000  1512.0000 </r>
       <r>     7.8016     0.0000  1512.0000 </r>
       <r>     7.8960     0.0000  1512.0000 </r>
       <r>     7.9903     0.0000  1512.0000 </r>
       <r>     8.0847     0.0000  1512.0000 </r>
       <r>     8.1790     0.0000  1512.0000 </r>
       <r>     8.2734     0.0000  1512.0000 </r>
       <r>     8.3677     0.0000  1512.0000 </r>
      </set>
     </set>
    </array>
   </total>
  </dos>
 </calculation>
 <structure name="finalpos" >
  <crystal>
   <varray name="basis" >
    <v>      10.28518105       0.00000000       0.00000000 </v>
    <v>       5.14259052       8.90722807       0.00000000 </v>
    <v>       0.00000000       0.00000000      27.79016876 </v>
   </varray>
   <i name="volume">   2545.92553775 </i>
   <varray name="rec_basis" >
    <v>       0.09722726      -0.05613419       0.00000000 </v>
    <v>       0.00000000       0.11226837       0.00000000 </v>
    <v>       0.00000000       0.00000000       0.03598395 </v>
   </varray>
  </crystal>
  <varray name="positions" >
   <v>       0.00000000       0.00000000       0.22663990 </v>
   <v>       0.00000000       0.50000000       0.22663990 </v>
   <v>       0.50000000       0.00000000       0.22663990 </v>
   <v>       0.50000000       0.50000000       0.22663990 </v>
   <v>       0.00000000       0.25000000       0.22663990 </v>
   <v>       0.00000000       0.75000000       0.22663990 </v>
   <v>       0.50000000       0.25000000       0.22663990 </v>
   <v>       0.50000000       0.75000000       0.22663990 </v>
   <v>       0.25000000       0.00000000       0.22663990 </v>
   <v>       0.25000000       0.50000000       0.22663990 </v>
   <v>       0.75000000       0.00000000       0.22663990 </v>
   <v>       0.75000000       0.50000000       0.22663990 </v>
   <v>       0.25000000       0.25000000       0.22663990 </v>
   <v>       0.25000000       0.75000000       0.22663990 </v>
   <v>       0.75000000       0.25000000       0.22663990 </v>
   <v>       0.75000000       0.75000000       0.22663990 </v>
   <v>       0.16666666       0.16666666       0.30218653 </v>
   <v>       0.16666666       0.66666666       0.30218653 </v>
   <v>       0.66666666       0.16666666       0.30218653 </v>
   <v>       0.66666666       0.66666666       0.30218653 </v>
   <v>       0.16666666       0.41666666       0.30218653 </v>
   <v>       0.16666666       0.91666666       0.30218653 </v>
   <v>       0.66666666       0.41666666       0.30218653 </v>
   <v>       0.66666666       0.91666666       0.30218653 </v>
   <v>       0.41666666       0.16666666       0.30218653 </v>
   <v>       0.41666666       0.66666666       0.30218653 </v>
   <v>       0.91666666       0.16666666       0.30218653 </v>
   <v>       0.91666666       0.66666666       0.30218653 </v>
   <v>       0.41666666       0.41666666       0.30218653 </v>
   <v>       0.41666666       0.91666666       0.30218653 </v>
   <v>       0.91666666       0.41666666       0.30218653 </v>
   <v>       0.91666666       0.91666666       0.30218653 </v>
   <v>       0.08333333       0.08333333       0.37716320 </v>
   <v>       0.08333333       0.58333333       0.37716320 </v>
   <v>       0.58333333       0.08333333       0.37716320 </v>
   <v>       0.58333333       0.58333333       0.37716320 </v>
   <v>       0.08351614       0.33324190       0.37729758 </v>
   <v>       0.08351614       0.83324190       0.37729758 </v>
   <v>       0.58351614       0.33324190       0.37729758 </v>
   <v>       0.58351614       0.83324190       0.37729758 </v>
   <v>       0.33324190       0.08351614       0.37729758 </v>
   <v>       0.33324190       0.58351614       0.37729758 </v>
   <v>       0.83324190       0.08351614       0.37729758 </v>
   <v>       0.83324190       0.58351614       0.37729758 </v>
   <v>       0.33324190       0.33324190       0.37729758 </v>
   <v>       0.33324190       0.83324190       0.37729758 </v>
   <v>       0.83324190       0.33324190       0.37729758 </v>
   <v>       0.83324190       0.83324190       0.37729758 </v>
   <v>       0.00012997       0.00012997       0.45242342 </v>
   <v>       0.00012997       0.50012997       0.45242342 </v>
   <v>       0.50012997       0.00012997       0.45242342 </v>
   <v>       0.50012997       0.50012997       0.45242342 </v>
   <v>       0.00012997       0.24974005       0.45242342 </v>
   <v>       0.00012997       0.74974005       0.45242342 </v>
   <v>       0.50012997       0.24974005       0.45242342 </v>
   <v>       0.50012997       0.74974005       0.45242342 </v>
   <v>       0.24974005       0.00012997       0.45242342 </v>
   <v>       0.24974005       0.50012997       0.45242342 </v>
   <v>       0.74974005       0.00012997       0.45242342 </v>
   <v>       0.74974005       0.50012997       0.45242342 </v>
   <v>       0.25000000       0.25000000       0.45288750 </v>
   <v>       0.25000000       0.75000000       0.45288750 </v>
   <v>       0.75000000       0.25000000       0.45288750 </v>
   <v>       0.75000000       0.75000000       0.45288750 </v>
   <v>       0.16660598       0.16660598       0.52813907 </v>
   <v>       0.16660598       0.66660598       0.52813907 </v>
   <v>       0.66660598       0.16660598       0.52813907 </v>
   <v>       0.66660598       0.66660598       0.52813907 </v>
   <v>       0.16660598       0.41678801       0.52813907 </v>
   <v>       0.16660598       0.91678801       0.52813907 </v>
   <v>       0.66660598       0.41678801       0.52813907 </v>
   <v>       0.66660598       0.91678801       0.52813907 </v>
   <v>       0.41678801       0.16660598       0.52813907 </v>
   <v>       0.41678801       0.66660598       0.52813907 </v>
   <v>       0.91678801       0.16660598       0.52813907 </v>
   <v>       0.91678801       0.66660598       0.52813907 </v>
   <v>       0.41666666       0.41666666       0.52741939 </v>
   <v>       0.41666666       0.91666666       0.52741939 </v>
   <v>       0.91666666       0.41666666       0.52741939 </v>
   <v>       0.91666666       0.91666666       0.52741939 </v>
   <v>       0.08333333       0.08333333       0.60253339 </v>
   <v>       0.08333333       0.58333333       0.60253339 </v>
   <v>       0.58333333       0.08333333       0.60253339 </v>
   <v>       0.58333333       0.58333333       0.60253339 </v>
   <v>       0.08130935       0.33434529       0.60320464 </v>
   <v>       0.08130935       0.83434529       0.60320464 </v>
   <v>       0.58130935       0.33434529       0.60320464 </v>
   <v>       0.58130935       0.83434529       0.60320464 </v>
   <v>       0.33434529       0.08130935       0.60320464 </v>
   <v>       0.33434529       0.58130935       0.60320464 </v>
   <v>       0.83434529       0.08130935       0.60320464 </v>
   <v>       0.83434529       0.58130935       0.60320464 </v>
   <v>       0.33434529       0.33434529       0.60320464 </v>
   <v>       0.33434529       0.83434529       0.60320464 </v>
   <v>       0.83434529       0.33434529       0.60320464 </v>
   <v>       0.83434529       0.83434529       0.60320464 </v>
   <v>       0.49852148       0.49714648       0.68108137 </v>
   <v>       0.49714648       0.99714648       0.68057248 </v>
   <v>       0.99714648       0.49714648       0.68057248 </v>
   <v>       0.99714648       0.99714648       0.68057248 </v>
   <v>       0.49714648       0.25570704       0.68057248 </v>
   <v>       0.49714648       0.75570704       0.68057248 </v>
   <v>       0.99714648       0.25570704       0.68057248 </v>
   <v>       0.99714648       0.75570704       0.68057248 </v>
   <v>       0.25570704       0.49714648       0.68057248 </v>
   <v>       0.25570704       0.99714648       0.68057248 </v>
   <v>       0.75570704       0.49714648       0.68057248 </v>
   <v>       0.75570704       0.99714648       0.68057248 </v>
   <v>       0.25000000       0.25000000       0.67480871 </v>
   <v>       0.25000000       0.75000000       0.67480871 </v>
   <v>       0.75000000       0.25000000       0.67480871 </v>
   <v>       0.75000000       0.75000000       0.67480871 </v>
   <v>       0.08333333       0.08333333       0.72043888 </v>
   <v>       0.08333333       0.58333333       0.72043888 </v>
   <v>       0.58333333       0.08333333       0.72043888 </v>
   <v>       0.58333333       0.58333333       0.72043888 </v>
  </varray>
 </structure>
</modeling>
