<?xml version="1.0" encoding="ISO-8859-1"?>
<modeling>
 <generator>
  <i name="program" type="string">vasp </i>
  <i name="version" type="string">5.4.4.18Apr17-6-g9f103f2a35  </i>
  <i name="subversion" type="string">(build Feb 09 2021 16:27:36) complex            parallel </i>
  <i name="platform" type="string">IFC15_impi </i>
  <i name="date" type="string">2021 04 29 </i>
  <i name="time" type="string">03:24:28 </i>
 </generator>
 <incar>
  <i type="int" name="ISTART">     0</i>
  <i type="string" name="PREC">a</i>
  <i type="logical" name="ADDGRID"> T  </i>
  <i type="int" name="NELM">   300</i>
  <i type="int" name="NELMIN">     5</i>
  <i type="int" name="IBRION">    -1</i>
  <i name="EDIFF">      0.00000100</i>
  <i name="ENCUT">    500.00000000</i>
  <i type="logical" name="LREAL"> F  </i>
  <i type="int" name="ISMEAR">     0</i>
  <i name="SIGMA">      0.05000000</i>
  <i type="logical" name="LWAVE"> F  </i>
  <i type="logical" name="LCHARG"> F  </i>
  <v type="int" name="KPOINT_BSE">    -1     0     0     0</v>
  <i type="int" name="NELM">   300</i>
 </incar>
 <structure name="primitive_cell" >
  <crystal>
   <varray name="basis" >
    <v>      10.28518105       0.00000000       0.00000000 </v>
    <v>       5.14259052       8.90722807       0.00000000 </v>
    <v>       0.00000000       0.00000000      27.79016876 </v>
   </varray>
   <i name="volume">   2545.92553775 </i>
   <varray name="rec_basis" >
    <v>       0.09722726      -0.05613419       0.00000000 </v>
    <v>       0.00000000       0.11226837       0.00000000 </v>
    <v>       0.00000000       0.00000000       0.03598395 </v>
   </varray>
  </crystal>
  <varray name="positions" >
   <v>       0.00000000       0.00000000       0.22663990 </v>
   <v>       0.16666666      -0.08333334       0.30218653 </v>
   <v>      -0.08333334       0.16666666       0.30218653 </v>
   <v>       0.25000000       0.00000000       0.22663990 </v>
   <v>       0.00000000      -0.25000000       0.22663990 </v>
   <v>       0.25000000      -0.25000000       0.22663990 </v>
   <v>      -0.25000000       0.25000000       0.22663990 </v>
   <v>       0.00000000       0.25000000       0.22663990 </v>
   <v>      -0.25000000       0.00000000       0.22663990 </v>
   <v>      -0.08333334      -0.08333334       0.30218653 </v>
   <v>       0.16666666       0.16666666       0.30218653 </v>
   <v>       0.16666666      -0.33333334       0.30218653 </v>
   <v>      -0.33333334       0.16666666       0.30218653 </v>
   <v>       0.08333333       0.08333333       0.37716320 </v>
   <v>       0.08351614      -0.16675810       0.37729758 </v>
   <v>      -0.16675810       0.08351614       0.37729758 </v>
   <v>       0.41666666      -0.08333334       0.30218653 </v>
   <v>      -0.08333334       0.41666666       0.30218653 </v>
   <v>      -0.33333334       0.41666666       0.30218653 </v>
   <v>       0.41666666      -0.33333334       0.30218653 </v>
   <v>      -0.50000000       0.25000000       0.22663990 </v>
   <v>       0.25000000       0.25000000       0.22663990 </v>
   <v>       0.25000000      -0.50000000       0.22663990 </v>
   <v>      -0.25000000      -0.50000000       0.22663990 </v>
   <v>      -0.25000000      -0.25000000       0.22663990 </v>
   <v>      -0.50000000      -0.25000000       0.22663990 </v>
   <v>      -0.08333334      -0.33333334       0.30218653 </v>
   <v>      -0.33333334      -0.08333334       0.30218653 </v>
   <v>       0.33324190      -0.16675810       0.37729758 </v>
   <v>      -0.16675810       0.33324190       0.37729758 </v>
   <v>      -0.16675810      -0.16675810       0.37729758 </v>
   <v>       0.00000000      -0.50000000       0.22663990 </v>
   <v>      -0.50000000      -0.50000000       0.22663990 </v>
   <v>      -0.50000000       0.00000000       0.22663990 </v>
   <v>      -0.41666667       0.08333333       0.37716320 </v>
   <v>       0.08333333      -0.41666667       0.37716320 </v>
   <v>       0.33324190      -0.41648386       0.37729758 </v>
   <v>      -0.41648386       0.33324190       0.37729758 </v>
   <v>       0.33324190       0.08351614       0.37729758 </v>
   <v>       0.08351614       0.33324190       0.37729758 </v>
   <v>       0.16666666       0.41666666       0.30218653 </v>
   <v>       0.41666666       0.16666666       0.30218653 </v>
   <v>       0.41666666       0.41666666       0.30218653 </v>
   <v>       0.00012997       0.00012997       0.45242342 </v>
   <v>      -0.33333334      -0.33333334       0.30218653 </v>
   <v>       0.00012997       0.24974005       0.45242342 </v>
   <v>       0.24974005       0.00012997       0.45242342 </v>
   <v>      -0.25025995       0.00012997       0.45242342 </v>
   <v>       0.00012997      -0.25025995       0.45242342 </v>
   <v>       0.25000000      -0.25000000       0.45288750 </v>
   <v>      -0.25000000       0.25000000       0.45288750 </v>
   <v>      -0.41666667      -0.41666667       0.37716320 </v>
   <v>      -0.41648386      -0.16675810       0.37729758 </v>
   <v>      -0.16675810      -0.41648386       0.37729758 </v>
   <v>       0.33324190       0.33324190       0.37729758 </v>
   <v>       0.24974005      -0.49987003       0.45242342 </v>
   <v>      -0.49987003       0.24974005       0.45242342 </v>
   <v>      -0.49987003      -0.25025995       0.45242342 </v>
   <v>      -0.25025995      -0.49987003       0.45242342 </v>
   <v>       0.25000000       0.25000000       0.45288750 </v>
   <v>      -0.25000000      -0.25000000       0.45288750 </v>
   <v>       0.00012997      -0.49987003       0.45242342 </v>
   <v>      -0.49987003       0.00012997       0.45242342 </v>
   <v>      -0.49987003      -0.49987003       0.45242342 </v>
   <v>      -0.08333334      -0.08333334      -0.47258061 </v>
   <v>      -0.08321199       0.16660598      -0.47186093 </v>
   <v>       0.16660598      -0.08321199      -0.47186093 </v>
   <v>       0.16660598       0.16660598      -0.47186093 </v>
   <v>      -0.33339402       0.16660598      -0.47186093 </v>
   <v>       0.16660598      -0.33339402      -0.47186093 </v>
   <v>       0.41666666      -0.08333334      -0.47258061 </v>
   <v>      -0.08333334       0.41666666      -0.47258061 </v>
   <v>      -0.33339402      -0.08321199      -0.47186093 </v>
   <v>      -0.08321199      -0.33339402      -0.47186093 </v>
   <v>      -0.33339402       0.41678801      -0.47186093 </v>
   <v>       0.41678801      -0.33339402      -0.47186093 </v>
   <v>       0.41666666       0.41666666      -0.47258061 </v>
   <v>       0.16660598       0.41678801      -0.47186093 </v>
   <v>       0.41678801       0.16660598      -0.47186093 </v>
   <v>      -0.33339402      -0.33339402      -0.47186093 </v>
   <v>       0.08333333       0.08333333      -0.39746661 </v>
   <v>      -0.16565471       0.08130935      -0.39679536 </v>
   <v>       0.08130935      -0.16565471      -0.39679536 </v>
   <v>      -0.16565471      -0.16565471      -0.39679536 </v>
   <v>      -0.16565471       0.33434529      -0.39679536 </v>
   <v>       0.33434529      -0.16565471      -0.39679536 </v>
   <v>      -0.41666667       0.08333333      -0.39746661 </v>
   <v>       0.08333333      -0.41666667      -0.39746661 </v>
   <v>       0.08130935       0.33434529      -0.39679536 </v>
   <v>       0.33434529       0.08130935      -0.39679536 </v>
   <v>       0.33434529      -0.41869065      -0.39679536 </v>
   <v>      -0.41869065       0.33434529      -0.39679536 </v>
   <v>      -0.41666667      -0.41666667      -0.39746661 </v>
   <v>      -0.41869065      -0.16565471      -0.39679536 </v>
   <v>      -0.16565471      -0.41869065      -0.39679536 </v>
   <v>       0.33434529       0.33434529      -0.39679536 </v>
   <v>      -0.00285352      -0.00285352      -0.31942752 </v>
   <v>       0.25000000      -0.25000000      -0.32519129 </v>
   <v>      -0.25000000       0.25000000      -0.32519129 </v>
   <v>      -0.24429296      -0.00285352      -0.31942752 </v>
   <v>      -0.00285352      -0.24429296      -0.31942752 </v>
   <v>      -0.00285352       0.25570704      -0.31942752 </v>
   <v>       0.25570704      -0.00285352      -0.31942752 </v>
   <v>       0.25000000       0.25000000      -0.32519129 </v>
   <v>      -0.25000000      -0.25000000      -0.32519129 </v>
   <v>       0.49714648      -0.24429296      -0.31942752 </v>
   <v>      -0.24429296       0.49714648      -0.31942752 </v>
   <v>       0.25570704       0.49714648      -0.31942752 </v>
   <v>       0.49714648       0.25570704      -0.31942752 </v>
   <v>       0.49794034       0.49555877      -0.31993641 </v>
   <v>      -0.00285352       0.49714648      -0.31942752 </v>
   <v>       0.49714648      -0.00285352      -0.31942752 </v>
   <v>       0.08333333       0.08333333      -0.27956112 </v>
   <v>      -0.41666667       0.08333333      -0.27956112 </v>
   <v>       0.08333333      -0.41666667      -0.27956112 </v>
   <v>      -0.41666667      -0.41666667      -0.27956112 </v>
  </varray>
 </structure>
 <varray name="primitive_index" >
  <v type="int" >        1 </v>
  <v type="int" >       22 </v>
  <v type="int" >       27 </v>
  <v type="int" >        9 </v>
  <v type="int" >        6 </v>
  <v type="int" >       14 </v>
  <v type="int" >       15 </v>
  <v type="int" >        5 </v>
  <v type="int" >       11 </v>
  <v type="int" >       32 </v>
  <v type="int" >       17 </v>
  <v type="int" >       18 </v>
  <v type="int" >       19 </v>
  <v type="int" >       33 </v>
  <v type="int" >       38 </v>
  <v type="int" >       43 </v>
  <v type="int" >       30 </v>
  <v type="int" >       31 </v>
  <v type="int" >       23 </v>
  <v type="int" >       26 </v>
  <v type="int" >        7 </v>
  <v type="int" >       13 </v>
  <v type="int" >       10 </v>
  <v type="int" >       12 </v>
  <v type="int" >       16 </v>
  <v type="int" >        8 </v>
  <v type="int" >       28 </v>
  <v type="int" >       24 </v>
  <v type="int" >       46 </v>
  <v type="int" >       47 </v>
  <v type="int" >       48 </v>
  <v type="int" >        2 </v>
  <v type="int" >        4 </v>
  <v type="int" >        3 </v>
  <v type="int" >       35 </v>
  <v type="int" >       34 </v>
  <v type="int" >       42 </v>
  <v type="int" >       39 </v>
  <v type="int" >       41 </v>
  <v type="int" >       37 </v>
  <v type="int" >       21 </v>
  <v type="int" >       25 </v>
  <v type="int" >       29 </v>
  <v type="int" >       49 </v>
  <v type="int" >       20 </v>
  <v type="int" >       53 </v>
  <v type="int" >       57 </v>
  <v type="int" >       59 </v>
  <v type="int" >       54 </v>
  <v type="int" >       62 </v>
  <v type="int" >       63 </v>
  <v type="int" >       36 </v>
  <v type="int" >       40 </v>
  <v type="int" >       44 </v>
  <v type="int" >       45 </v>
  <v type="int" >       58 </v>
  <v type="int" >       55 </v>
  <v type="int" >       56 </v>
  <v type="int" >       60 </v>
  <v type="int" >       61 </v>
  <v type="int" >       64 </v>
  <v type="int" >       50 </v>
  <v type="int" >       51 </v>
  <v type="int" >       52 </v>
  <v type="int" >       80 </v>
  <v type="int" >       75 </v>
  <v type="int" >       70 </v>
  <v type="int" >       65 </v>
  <v type="int" >       67 </v>
  <v type="int" >       66 </v>
  <v type="int" >       78 </v>
  <v type="int" >       79 </v>
  <v type="int" >       72 </v>
  <v type="int" >       76 </v>
  <v type="int" >       71 </v>
  <v type="int" >       74 </v>
  <v type="int" >       77 </v>
  <v type="int" >       69 </v>
  <v type="int" >       73 </v>
  <v type="int" >       68 </v>
  <v type="int" >       81 </v>
  <v type="int" >       91 </v>
  <v type="int" >       86 </v>
  <v type="int" >       96 </v>
  <v type="int" >       95 </v>
  <v type="int" >       94 </v>
  <v type="int" >       83 </v>
  <v type="int" >       82 </v>
  <v type="int" >       85 </v>
  <v type="int" >       89 </v>
  <v type="int" >       90 </v>
  <v type="int" >       87 </v>
  <v type="int" >       84 </v>
  <v type="int" >       88 </v>
  <v type="int" >       92 </v>
  <v type="int" >       93 </v>
  <v type="int" >      100 </v>
  <v type="int" >      110 </v>
  <v type="int" >      111 </v>
  <v type="int" >      108 </v>
  <v type="int" >      104 </v>
  <v type="int" >      103 </v>
  <v type="int" >      106 </v>
  <v type="int" >      109 </v>
  <v type="int" >      112 </v>
  <v type="int" >      102 </v>
  <v type="int" >      107 </v>
  <v type="int" >      105 </v>
  <v type="int" >      101 </v>
  <v type="int" >       97 </v>
  <v type="int" >       99 </v>
  <v type="int" >       98 </v>
  <v type="int" >      113 </v>
  <v type="int" >      115 </v>
  <v type="int" >      114 </v>
  <v type="int" >      116 </v>
 </varray>
 <kpoints>
  <generation param="Gamma">
   <v type="int" name="divisions">       4        4        1 </v>
   <v name="usershift">      0.00000000       0.00000000       0.00000000 </v>
   <v name="genvec1">      0.25000000      -0.00000000       0.00000000 </v>
   <v name="genvec2">      0.00000000       0.25000000       0.00000000 </v>
   <v name="genvec3">      0.00000000       0.00000000       1.00000000 </v>
   <v name="shift">      0.00000000       0.00000000       0.00000000 </v>
  </generation>
  <varray name="kpointlist" >
   <v>       0.00000000       0.00000000       0.00000000 </v>
   <v>       0.25000000      -0.00000000       0.00000000 </v>
   <v>       0.50000000      -0.00000000       0.00000000 </v>
   <v>       0.00000000       0.25000000       0.00000000 </v>
   <v>       0.25000000       0.25000000       0.00000000 </v>
   <v>       0.50000000       0.25000000       0.00000000 </v>
   <v>      -0.25000000       0.25000000       0.00000000 </v>
   <v>       0.00000000       0.50000000       0.00000000 </v>
   <v>       0.25000000       0.50000000       0.00000000 </v>
   <v>       0.50000000       0.50000000       0.00000000 </v>
  </varray>
  <varray name="weights" >
   <v>       0.06250000 </v>
   <v>       0.12500000 </v>
   <v>       0.06250000 </v>
   <v>       0.12500000 </v>
   <v>       0.12500000 </v>
   <v>       0.12500000 </v>
   <v>       0.12500000 </v>
   <v>       0.06250000 </v>
   <v>       0.12500000 </v>
   <v>       0.06250000 </v>
  </varray>
 </kpoints>
 <parameters>
  <separator name="general" >
   <i type="string" name="SYSTEM">unknown system</i>
   <i type="logical" name="LCOMPAT"> F  </i>
  </separator>
  <separator name="electronic" >
   <i type="string" name="PREC">a</i>
   <i name="ENMAX">    500.00000000</i>
   <i name="ENAUG">    605.39200000</i>
   <i name="EDIFF">      0.00000100</i>
   <i type="int" name="IALGO">    38</i>
   <i type="int" name="IWAVPR">    10</i>
   <i type="int" name="NBANDS">   756</i>
   <i name="NELECT">   1256.00000000</i>
   <i type="int" name="TURBO">     0</i>
   <i type="int" name="IRESTART">     0</i>
   <i type="int" name="NREBOOT">     0</i>
   <i type="int" name="NMIN">     0</i>
   <i name="EREF">      0.00000000</i>
   <separator name="electronic smearing" >
    <i type="int" name="ISMEAR">     0</i>
    <i name="SIGMA">      0.05000000</i>
    <i name="KSPACING">      0.50000000</i>
    <i type="logical" name="KGAMMA"> T  </i>
   </separator>
   <separator name="electronic projectors" >
    <i type="logical" name="LREAL"> F  </i>
    <v name="ROPT">      0.00000000      0.00000000</v>
    <i type="int" name="LMAXPAW">  -100</i>
    <i type="int" name="LMAXMIX">     2</i>
    <i type="logical" name="NLSPLINE"> F  </i>
   </separator>
   <separator name="electronic startup" >
    <i type="int" name="ISTART">     0</i>
    <i type="int" name="ICHARG">     2</i>
    <i type="int" name="INIWAV">     1</i>
   </separator>
   <separator name="electronic spin" >
    <i type="int" name="ISPIN">     1</i>
    <i type="logical" name="LNONCOLLINEAR"> F  </i>
    <v name="MAGMOM">      1.00000000      1.00000000      1.00000000      1.00000000      1.00000000      1.00000000      1.00000000      1.00000000      1.00000000      1.00000000      1.00000000      1.00000000      1.00000000      1.00000000      1.00000000      1.00000000      1.00000000      1.00000000      1.00000000      1.00000000
      1.00000000      1.00000000      1.00000000      1.00000000      1.00000000      1.00000000      1.00000000      1.00000000      1.00000000      1.00000000      1.00000000      1.00000000      1.00000000      1.00000000      1.00000000      1.00000000      1.00000000      1.00000000      1.00000000      1.00000000
      1.00000000      1.00000000      1.00000000      1.00000000      1.00000000      1.00000000      1.00000000      1.00000000      1.00000000      1.00000000      1.00000000      1.00000000      1.00000000      1.00000000      1.00000000      1.00000000      1.00000000      1.00000000      1.00000000      1.00000000
      1.00000000      1.00000000      1.00000000      1.00000000      1.00000000      1.00000000      1.00000000      1.00000000      1.00000000      1.00000000      1.00000000      1.00000000      1.00000000      1.00000000      1.00000000      1.00000000      1.00000000      1.00000000      1.00000000      1.00000000
      1.00000000      1.00000000      1.00000000      1.00000000      1.00000000      1.00000000      1.00000000      1.00000000      1.00000000      1.00000000      1.00000000      1.00000000      1.00000000      1.00000000      1.00000000      1.00000000      1.00000000      1.00000000      1.00000000      1.00000000
      1.00000000      1.00000000      1.00000000      1.00000000      1.00000000      1.00000000      1.00000000      1.00000000      1.00000000      1.00000000      1.00000000      1.00000000      1.00000000      1.00000000      1.00000000      1.00000000</v>
    <i name="NUPDOWN">     -1.00000000</i>
    <i type="logical" name="LSORBIT"> F  </i>
    <v name="SAXIS">      0.00000000      0.00000000      1.00000000</v>
    <i type="logical" name="LSPIRAL"> F  </i>
    <v name="QSPIRAL">      0.00000000      0.00000000      0.00000000</v>
    <i type="logical" name="LZEROZ"> F  </i>
   </separator>
   <separator name="electronic exchange-correlation" >
    <i type="logical" name="LASPH"> F  </i>
    <i type="logical" name="LMETAGGA"> F  </i>
   </separator>
   <separator name="electronic convergence" >
    <i type="int" name="NELM">   300</i>
    <i type="int" name="NELMDL">    -5</i>
    <i type="int" name="NELMIN">     5</i>
    <i name="ENINI">    500.00000000</i>
    <separator name="electronic convergence detail" >
     <i type="logical" name="LDIAG"> T  </i>
     <i type="logical" name="LSUBROT"> F  </i>
     <i name="WEIMIN">      0.00000000</i>
     <i name="EBREAK">      0.00000000</i>
     <i name="DEPER">      0.30000000</i>
     <i type="int" name="NRMM">     4</i>
     <i name="TIME">      0.40000000</i>
    </separator>
   </separator>
   <separator name="electronic mixer" >
    <i name="AMIX">      0.40000000</i>
    <i name="BMIX">      1.00000000</i>
    <i name="AMIN">      0.10000000</i>
    <i name="AMIX_MAG">      1.60000000</i>
    <i name="BMIX_MAG">      1.00000000</i>
    <separator name="electronic mixer details" >
     <i type="int" name="IMIX">     4</i>
     <i type="logical" name="MIXFIRST"> F  </i>
     <i type="int" name="MAXMIX">   -45</i>
     <i name="WC">    100.00000000</i>
     <i type="int" name="INIMIX">     1</i>
     <i type="int" name="MIXPRE">     1</i>
     <i type="int" name="MREMOVE">     5</i>
    </separator>
   </separator>
   <separator name="electronic dipolcorrection" >
    <i type="logical" name="LDIPOL"> F  </i>
    <i type="logical" name="LMONO"> F  </i>
    <i type="int" name="IDIPOL">     0</i>
    <i name="EPSILON">      1.00000000</i>
    <v name="DIPOL">   -100.00000000   -100.00000000   -100.00000000</v>
    <i name="EFIELD">      0.00000000</i>
   </separator>
  </separator>
  <separator name="grids" >
   <i type="int" name="NGX">    80</i>
   <i type="int" name="NGY">    80</i>
   <i type="int" name="NGZ">   210</i>
   <i type="int" name="NGXF">   160</i>
   <i type="int" name="NGYF">   160</i>
   <i type="int" name="NGZF">   420</i>
   <i type="logical" name="ADDGRID"> T  </i>
  </separator>
  <separator name="ionic" >
   <i type="int" name="NSW">     0</i>
   <i type="int" name="IBRION">    -1</i>
   <i type="int" name="MDALGO">     0</i>
   <i type="int" name="ISIF">     2</i>
   <i name="PSTRESS">      0.00000000</i>
   <i name="EDIFFG">      0.00001000</i>
   <i type="int" name="NFREE">     0</i>
   <i name="POTIM">      0.50000000</i>
   <i name="SMASS">     -3.00000000</i>
   <i name="SCALEE">      1.00000000</i>
  </separator>
  <separator name="ionic md" >
   <i name="TEBEG">      0.00010000</i>
   <i name="TEEND">      0.00010000</i>
   <i type="int" name="NBLOCK">     1</i>
   <i type="int" name="KBLOCK">     1</i>
   <i type="int" name="NPACO">   256</i>
   <i name="APACO">     16.00000000</i>
  </separator>
  <separator name="symmetry" >
   <i type="int" name="ISYM">     2</i>
   <i name="SYMPREC">      0.00001000</i>
  </separator>
  <separator name="dos" >
   <i type="int" name="LORBIT">     0</i>
   <v name="RWIGS">     -1.00000000     -1.00000000</v>
   <i type="int" name="NEDOS">   301</i>
   <i name="EMIN">     10.00000000</i>
   <i name="EMAX">    -10.00000000</i>
   <i name="EFERMI">      0.00000000</i>
  </separator>
  <separator name="writing" >
   <i type="int" name="NWRITE">     2</i>
   <i type="logical" name="LWAVE"> F  </i>
   <i type="logical" name="LDOWNSAMPLE"> F  </i>
   <i type="logical" name="LCHARG"> F  </i>
   <i type="logical" name="LPARD"> F  </i>
   <i type="logical" name="LVTOT"> F  </i>
   <i type="logical" name="LVHAR"> F  </i>
   <i type="logical" name="LELF"> F  </i>
   <i type="logical" name="LOPTICS"> F  </i>
   <v name="STM">      0.00000000      0.00000000      0.00000000      0.00000000      0.00000000      0.00000000      0.00000000</v>
  </separator>
  <separator name="performance" >
   <i type="int" name="NPAR">     4</i>
   <i type="int" name="NSIM">     4</i>
   <i type="int" name="NBLK">    -1</i>
   <i type="logical" name="LPLANE"> T  </i>
   <i type="logical" name="LSCALAPACK"> F  </i>
   <i type="logical" name="LSCAAWARE"> F  </i>
   <i type="logical" name="LSCALU"> F  </i>
   <i type="logical" name="LASYNC"> F  </i>
   <i type="logical" name="LORBITALREAL"> F  </i>
  </separator>
  <separator name="miscellaneous" >
   <i type="int" name="IDIOT">     3</i>
   <i type="int" name="ISPECIAL">     0</i>
   <i type="logical" name="LMUSIC"> F  </i>
   <v name="POMASS">     63.54600000     16.00000000</v>
   <v name="DARWINR">      0.00000000      0.00000000</v>
   <v name="DARWINV">      1.00000000      1.00000000</v>
   <i type="logical" name="LCORR"> T  </i>
  </separator>
  <i type="logical" name="GGA_COMPAT"> T  </i>
  <i type="logical" name="LBERRY"> F  </i>
  <i type="int" name="ICORELEVEL">     0</i>
  <i type="logical" name="LDAU"> F  </i>
  <i type="int" name="I_CONSTRAINED_M">     0</i>
  <separator name="electronic exchange-correlation" >
   <i type="string" name="GGA">--</i>
   <i type="int" name="VOSKOWN">     0</i>
   <i type="logical" name="LHFCALC"> F  </i>
   <i type="string" name="PRECFOCK"></i>
   <i type="logical" name="LSYMGRAD"> F  </i>
   <i type="logical" name="LHFONE"> F  </i>
   <i type="logical" name="LRHFCALC"> F  </i>
   <i type="logical" name="LTHOMAS"> F  </i>
   <i type="logical" name="LMODELHF"> F  </i>
   <i name="ENCUT4O">     -1.00000000</i>
   <i type="int" name="EXXOEP">     0</i>
   <i type="int" name="FOURORBIT">     0</i>
   <i name="AEXX">      0.00000000</i>
   <i name="HFALPHA">      0.00000000</i>
   <i name="MCALPHA">      0.00000000</i>
   <i name="ALDAX">      1.00000000</i>
   <i name="AGGAX">      1.00000000</i>
   <i name="ALDAC">      1.00000000</i>
   <i name="AGGAC">      1.00000000</i>
   <i type="int" name="NKREDX">     1</i>
   <i type="int" name="NKREDY">     1</i>
   <i type="int" name="NKREDZ">     1</i>
   <i type="logical" name="SHIFTRED"> F  </i>
   <i type="logical" name="ODDONLY"> F  </i>
   <i type="logical" name="EVENONLY"> F  </i>
   <i type="int" name="LMAXFOCK">     0</i>
   <i type="int" name="NMAXFOCKAE">     0</i>
   <i type="logical" name="LFOCKAEDFT"> F  </i>
   <i name="HFSCREEN">      0.00000000</i>
   <i name="HFSCREENC">      0.00000000</i>
   <i type="int" name="NBANDSGWLOW">     0</i>
  </separator>
  <separator name="vdW DFT" >
   <i type="logical" name="LUSE_VDW"> F  </i>
   <i name="Zab_VDW">     -0.84910000</i>
   <i name="PARAM1">      0.12340000</i>
   <i name="PARAM2">      1.00000000</i>
   <i name="PARAM3">      0.00000000</i>
  </separator>
  <separator name="model GW" >
   <i type="int" name="MODEL_GW">     0</i>
   <i name="MODEL_EPS0">     13.16858037</i>
   <i name="MODEL_ALPHA">      1.00000000</i>
  </separator>
  <separator name="linear response parameters" >
   <i type="logical" name="LEPSILON"> F  </i>
   <i type="logical" name="LRPA"> F  </i>
   <i type="logical" name="LNABLA"> F  </i>
   <i type="logical" name="LVEL"> F  </i>
   <i type="int" name="KINTER">     0</i>
   <i name="CSHIFT">      0.10000000</i>
   <i name="OMEGAMAX">     -1.00000000</i>
   <i name="DEG_THRESHOLD">      0.00200000</i>
   <i name="RTIME">     -0.10000000</i>
   <i name="WPLASMAI">      0.00000000</i>
   <v name="DFIELD">      0.00000000      0.00000000      0.00000000</v>
   <v name="WPLASMA">      0.00000000      0.00000000      0.00000000      0.00000000      0.00000000      0.00000000      0.00000000      0.00000000      0.00000000</v>
  </separator>
  <separator name="orbital magnetization" >
   <i type="logical" name="NUCIND"> F  </i>
   <v name="MAGPOS">      0.00000000      0.00000000      0.00000000</v>
   <i type="logical" name="LNICSALL"> T  </i>
   <i type="logical" name="ORBITALMAG"> F  </i>
   <i type="logical" name="LMAGBLOCH"> F  </i>
   <i type="logical" name="LCHIMAG"> F  </i>
   <i type="logical" name="LGAUGE"> T  </i>
   <i type="int" name="MAGATOM">     0</i>
   <v name="MAGDIPOL">      0.00000000      0.00000000      0.00000000</v>
   <v name="AVECCONST">      0.00000000      0.00000000      0.00000000</v>
  </separator>
  <separator name="response functions" >
   <i type="logical" name="LADDER"> F  </i>
   <i type="logical" name="LRPAFORCE"> F  </i>
   <i type="logical" name="LFXC"> F  </i>
   <i type="logical" name="LHARTREE"> T  </i>
   <i type="int" name="IBSE">     0</i>
   <v type="int" name="KPOINT">    -1     0     0     0</v>
   <i type="logical" name="LTCTE"> F  </i>
   <i type="logical" name="LTETE"> F  </i>
   <i type="logical" name="LTRIPLET"> F  </i>
   <i type="logical" name="LFXCEPS"> F  </i>
   <i type="logical" name="LFXHEG"> F  </i>
   <i type="int" name="NATURALO">     2</i>
   <i type="logical" name="L2ORDER"> F  </i>
   <i type="logical" name="LMP2LT"> F  </i>
   <i type="logical" name="LUSEW"> F  </i>
   <i name="ENCUTGW">     -2.00000000</i>
   <i name="ENCUTGWSOFT">     -2.00000000</i>
   <i name="ENCUTLF">     -1.00000000</i>
   <i type="int" name="LMAXMP2">    -1</i>
   <i name="SCISSOR">      0.00000000</i>
   <i type="int" name="NOMEGA">     0</i>
   <i type="int" name="NOMEGAR">     0</i>
   <i type="int" name="NBANDSGW">    -1</i>
   <i type="int" name="NBANDSO">    -1</i>
   <i type="int" name="NBANDSV">    -1</i>
   <i type="int" name="NELM">   300</i>
   <i type="int" name="NELMHF">     1</i>
   <i type="int" name="DIM">     3</i>
   <i type="int" name="ANTIRES">     0</i>
   <i name="OMEGAMAX">    -30.00000000</i>
   <i name="OMEGAMIN">    -30.00000000</i>
   <i name="OMEGATL">   -200.00000000</i>
   <i type="int" name="OMEGAGRID">   140</i>
   <i name="CSHIFT">     -0.10000000</i>
   <i type="logical" name="SELFENERGY"> F  </i>
   <i type="logical" name="LSPECTRAL"> F  </i>
   <i type="logical" name="LSPECTRALGW"> F  </i>
   <i type="logical" name="LSINGLES"> F  </i>
   <i type="logical" name="LFERMIGW"> F  </i>
   <i type="logical" name="ODDONLYGW"> F  </i>
   <i type="logical" name="EVENONLYGW"> F  </i>
   <i type="int" name="NKREDLFX">     1</i>
   <i type="int" name="NKREDLFY">     1</i>
   <i type="int" name="NKREDLFZ">     1</i>
   <i type="int" name="MAXMEM">  2800</i>
   <i type="int" name="TELESCOPE">     0</i>
   <i type="int" name="TAUPAR">     1</i>
   <i type="int" name="OMEGAPAR">    -1</i>
   <i name="LAMBDA">      1.00000000</i>
  </separator>
  <separator name="External order field" >
   <i name="OFIELD_KAPPA">      0.00000000</i>
   <v name="OFIELD_K">      0.00000000      0.00000000      0.00000000</v>
   <i name="OFIELD_Q6_NEAR">      0.00000000</i>
   <i name="OFIELD_Q6_FAR">      0.00000000</i>
   <i name="OFIELD_A">      0.00000000</i>
  </separator>
 </parameters>
 <atominfo>
  <atoms>     116 </atoms>
  <types>       2 </types>
  <array name="atoms" >
   <dimension dim="1">ion</dimension>
   <field type="string">element</field>
   <field type="int">atomtype</field>
   <set>
    <rc><c>Cu</c><c>   1</c></rc>
    <rc><c>Cu</c><c>   1</c></rc>
    <rc><c>Cu</c><c>   1</c></rc>
    <rc><c>Cu</c><c>   1</c></rc>
    <rc><c>Cu</c><c>   1</c></rc>
    <rc><c>Cu</c><c>   1</c></rc>
    <rc><c>Cu</c><c>   1</c></rc>
    <rc><c>Cu</c><c>   1</c></rc>
    <rc><c>Cu</c><c>   1</c></rc>
    <rc><c>Cu</c><c>   1</c></rc>
    <rc><c>Cu</c><c>   1</c></rc>
    <rc><c>Cu</c><c>   1</c></rc>
    <rc><c>Cu</c><c>   1</c></rc>
    <rc><c>Cu</c><c>   1</c></rc>
    <rc><c>Cu</c><c>   1</c></rc>
    <rc><c>Cu</c><c>   1</c></rc>
    <rc><c>Cu</c><c>   1</c></rc>
    <rc><c>Cu</c><c>   1</c></rc>
    <rc><c>Cu</c><c>   1</c></rc>
    <rc><c>Cu</c><c>   1</c></rc>
    <rc><c>Cu</c><c>   1</c></rc>
    <rc><c>Cu</c><c>   1</c></rc>
    <rc><c>Cu</c><c>   1</c></rc>
    <rc><c>Cu</c><c>   1</c></rc>
    <rc><c>Cu</c><c>   1</c></rc>
    <rc><c>Cu</c><c>   1</c></rc>
    <rc><c>Cu</c><c>   1</c></rc>
    <rc><c>Cu</c><c>   1</c></rc>
    <rc><c>Cu</c><c>   1</c></rc>
    <rc><c>Cu</c><c>   1</c></rc>
    <rc><c>Cu</c><c>   1</c></rc>
    <rc><c>Cu</c><c>   1</c></rc>
    <rc><c>Cu</c><c>   1</c></rc>
    <rc><c>Cu</c><c>   1</c></rc>
    <rc><c>Cu</c><c>   1</c></rc>
    <rc><c>Cu</c><c>   1</c></rc>
    <rc><c>Cu</c><c>   1</c></rc>
    <rc><c>Cu</c><c>   1</c></rc>
    <rc><c>Cu</c><c>   1</c></rc>
    <rc><c>Cu</c><c>   1</c></rc>
    <rc><c>Cu</c><c>   1</c></rc>
    <rc><c>Cu</c><c>   1</c></rc>
    <rc><c>Cu</c><c>   1</c></rc>
    <rc><c>Cu</c><c>   1</c></rc>
    <rc><c>Cu</c><c>   1</c></rc>
    <rc><c>Cu</c><c>   1</c></rc>
    <rc><c>Cu</c><c>   1</c></rc>
    <rc><c>Cu</c><c>   1</c></rc>
    <rc><c>Cu</c><c>   1</c></rc>
    <rc><c>Cu</c><c>   1</c></rc>
    <rc><c>Cu</c><c>   1</c></rc>
    <rc><c>Cu</c><c>   1</c></rc>
    <rc><c>Cu</c><c>   1</c></rc>
    <rc><c>Cu</c><c>   1</c></rc>
    <rc><c>Cu</c><c>   1</c></rc>
    <rc><c>Cu</c><c>   1</c></rc>
    <rc><c>Cu</c><c>   1</c></rc>
    <rc><c>Cu</c><c>   1</c></rc>
    <rc><c>Cu</c><c>   1</c></rc>
    <rc><c>Cu</c><c>   1</c></rc>
    <rc><c>Cu</c><c>   1</c></rc>
    <rc><c>Cu</c><c>   1</c></rc>
    <rc><c>Cu</c><c>   1</c></rc>
    <rc><c>Cu</c><c>   1</c></rc>
    <rc><c>Cu</c><c>   1</c></rc>
    <rc><c>Cu</c><c>   1</c></rc>
    <rc><c>Cu</c><c>   1</c></rc>
    <rc><c>Cu</c><c>   1</c></rc>
    <rc><c>Cu</c><c>   1</c></rc>
    <rc><c>Cu</c><c>   1</c></rc>
    <rc><c>Cu</c><c>   1</c></rc>
    <rc><c>Cu</c><c>   1</c></rc>
    <rc><c>Cu</c><c>   1</c></rc>
    <rc><c>Cu</c><c>   1</c></rc>
    <rc><c>Cu</c><c>   1</c></rc>
    <rc><c>Cu</c><c>   1</c></rc>
    <rc><c>Cu</c><c>   1</c></rc>
    <rc><c>Cu</c><c>   1</c></rc>
    <rc><c>Cu</c><c>   1</c></rc>
    <rc><c>Cu</c><c>   1</c></rc>
    <rc><c>Cu</c><c>   1</c></rc>
    <rc><c>Cu</c><c>   1</c></rc>
    <rc><c>Cu</c><c>   1</c></rc>
    <rc><c>Cu</c><c>   1</c></rc>
    <rc><c>Cu</c><c>   1</c></rc>
    <rc><c>Cu</c><c>   1</c></rc>
    <rc><c>Cu</c><c>   1</c></rc>
    <rc><c>Cu</c><c>   1</c></rc>
    <rc><c>Cu</c><c>   1</c></rc>
    <rc><c>Cu</c><c>   1</c></rc>
    <rc><c>Cu</c><c>   1</c></rc>
    <rc><c>Cu</c><c>   1</c></rc>
    <rc><c>Cu</c><c>   1</c></rc>
    <rc><c>Cu</c><c>   1</c></rc>
    <rc><c>Cu</c><c>   1</c></rc>
    <rc><c>Cu</c><c>   1</c></rc>
    <rc><c>Cu</c><c>   1</c></rc>
    <rc><c>Cu</c><c>   1</c></rc>
    <rc><c>Cu</c><c>   1</c></rc>
    <rc><c>Cu</c><c>   1</c></rc>
    <rc><c>Cu</c><c>   1</c></rc>
    <rc><c>Cu</c><c>   1</c></rc>
    <rc><c>Cu</c><c>   1</c></rc>
    <rc><c>Cu</c><c>   1</c></rc>
    <rc><c>Cu</c><c>   1</c></rc>
    <rc><c>Cu</c><c>   1</c></rc>
    <rc><c>Cu</c><c>   1</c></rc>
    <rc><c>Cu</c><c>   1</c></rc>
    <rc><c>Cu</c><c>   1</c></rc>
    <rc><c>Cu</c><c>   1</c></rc>
    <rc><c>Cu</c><c>   1</c></rc>
    <rc><c>Cu</c><c>   1</c></rc>
    <rc><c>O </c><c>   2</c></rc>
    <rc><c>O </c><c>   2</c></rc>
    <rc><c>O </c><c>   2</c></rc>
    <rc><c>O </c><c>   2</c></rc>
   </set>
  </array>
  <array name="atomtypes" >
   <dimension dim="1">type</dimension>
   <field type="int">atomspertype</field>
   <field type="string">element</field>
   <field>mass</field>
   <field>valence</field>
   <field type="string">pseudopotential</field>
   <set>
    <rc><c> 112</c><c>Cu</c><c>     63.54600000</c><c>     11.00000000</c><c> PAW_PBE Cu 05Jan2001                   </c></rc>
    <rc><c>   4</c><c>O </c><c>     16.00000000</c><c>      6.00000000</c><c> PAW_PBE O 08Apr2002                    </c></rc>
   </set>
  </array>
 </atominfo>
 <structure name="initialpos" >
  <crystal>
   <varray name="basis" >
    <v>      10.28518105       0.00000000       0.00000000 </v>
    <v>       5.14259052       8.90722807       0.00000000 </v>
    <v>       0.00000000       0.00000000      27.79016876 </v>
   </varray>
   <i name="volume">   2545.92553775 </i>
   <varray name="rec_basis" >
    <v>       0.09722726      -0.05613419       0.00000000 </v>
    <v>       0.00000000       0.11226837       0.00000000 </v>
    <v>       0.00000000       0.00000000       0.03598395 </v>
   </varray>
  </crystal>
  <varray name="positions" >
   <v>       0.00000000       0.00000000       0.22663990 </v>
   <v>       0.00000000       0.50000000       0.22663990 </v>
   <v>       0.50000000       0.00000000       0.22663990 </v>
   <v>       0.50000000       0.50000000       0.22663990 </v>
   <v>       0.00000000       0.25000000       0.22663990 </v>
   <v>       0.00000000       0.75000000       0.22663990 </v>
   <v>       0.50000000       0.25000000       0.22663990 </v>
   <v>       0.50000000       0.75000000       0.22663990 </v>
   <v>       0.25000000       0.00000000       0.22663990 </v>
   <v>       0.25000000       0.50000000       0.22663990 </v>
   <v>       0.75000000       0.00000000       0.22663990 </v>
   <v>       0.75000000       0.50000000       0.22663990 </v>
   <v>       0.25000000       0.25000000       0.22663990 </v>
   <v>       0.25000000       0.75000000       0.22663990 </v>
   <v>       0.75000000       0.25000000       0.22663990 </v>
   <v>       0.75000000       0.75000000       0.22663990 </v>
   <v>       0.16666666       0.16666666       0.30218653 </v>
   <v>       0.16666666       0.66666666       0.30218653 </v>
   <v>       0.66666666       0.16666666       0.30218653 </v>
   <v>       0.66666666       0.66666666       0.30218653 </v>
   <v>       0.16666666       0.41666666       0.30218653 </v>
   <v>       0.16666666       0.91666666       0.30218653 </v>
   <v>       0.66666666       0.41666666       0.30218653 </v>
   <v>       0.66666666       0.91666666       0.30218653 </v>
   <v>       0.41666666       0.16666666       0.30218653 </v>
   <v>       0.41666666       0.66666666       0.30218653 </v>
   <v>       0.91666666       0.16666666       0.30218653 </v>
   <v>       0.91666666       0.66666666       0.30218653 </v>
   <v>       0.41666666       0.41666666       0.30218653 </v>
   <v>       0.41666666       0.91666666       0.30218653 </v>
   <v>       0.91666666       0.41666666       0.30218653 </v>
   <v>       0.91666666       0.91666666       0.30218653 </v>
   <v>       0.08333333       0.08333333       0.37716320 </v>
   <v>       0.08333333       0.58333333       0.37716320 </v>
   <v>       0.58333333       0.08333333       0.37716320 </v>
   <v>       0.58333333       0.58333333       0.37716320 </v>
   <v>       0.08351614       0.33324190       0.37729758 </v>
   <v>       0.08351614       0.83324190       0.37729758 </v>
   <v>       0.58351614       0.33324190       0.37729758 </v>
   <v>       0.58351614       0.83324190       0.37729758 </v>
   <v>       0.33324190       0.08351614       0.37729758 </v>
   <v>       0.33324190       0.58351614       0.37729758 </v>
   <v>       0.83324190       0.08351614       0.37729758 </v>
   <v>       0.83324190       0.58351614       0.37729758 </v>
   <v>       0.33324190       0.33324190       0.37729758 </v>
   <v>       0.33324190       0.83324190       0.37729758 </v>
   <v>       0.83324190       0.33324190       0.37729758 </v>
   <v>       0.83324190       0.83324190       0.37729758 </v>
   <v>       0.00012997       0.00012997       0.45242342 </v>
   <v>       0.00012997       0.50012997       0.45242342 </v>
   <v>       0.50012997       0.00012997       0.45242342 </v>
   <v>       0.50012997       0.50012997       0.45242342 </v>
   <v>       0.00012997       0.24974005       0.45242342 </v>
   <v>       0.00012997       0.74974005       0.45242342 </v>
   <v>       0.50012997       0.24974005       0.45242342 </v>
   <v>       0.50012997       0.74974005       0.45242342 </v>
   <v>       0.24974005       0.00012997       0.45242342 </v>
   <v>       0.24974005       0.50012997       0.45242342 </v>
   <v>       0.74974005       0.00012997       0.45242342 </v>
   <v>       0.74974005       0.50012997       0.45242342 </v>
   <v>       0.25000000       0.25000000       0.45288750 </v>
   <v>       0.25000000       0.75000000       0.45288750 </v>
   <v>       0.75000000       0.25000000       0.45288750 </v>
   <v>       0.75000000       0.75000000       0.45288750 </v>
   <v>       0.16660598       0.16660598       0.52813907 </v>
   <v>       0.16660598       0.66660598       0.52813907 </v>
   <v>       0.66660598       0.16660598       0.52813907 </v>
   <v>       0.66660598       0.66660598       0.52813907 </v>
   <v>       0.16660598       0.41678801       0.52813907 </v>
   <v>       0.16660598       0.91678801       0.52813907 </v>
   <v>       0.66660598       0.41678801       0.52813907 </v>
   <v>       0.66660598       0.91678801       0.52813907 </v>
   <v>       0.41678801       0.16660598       0.52813907 </v>
   <v>       0.41678801       0.66660598       0.52813907 </v>
   <v>       0.91678801       0.16660598       0.52813907 </v>
   <v>       0.91678801       0.66660598       0.52813907 </v>
   <v>       0.41666666       0.41666666       0.52741939 </v>
   <v>       0.41666666       0.91666666       0.52741939 </v>
   <v>       0.91666666       0.41666666       0.52741939 </v>
   <v>       0.91666666       0.91666666       0.52741939 </v>
   <v>       0.08333333       0.08333333       0.60253339 </v>
   <v>       0.08333333       0.58333333       0.60253339 </v>
   <v>       0.58333333       0.08333333       0.60253339 </v>
   <v>       0.58333333       0.58333333       0.60253339 </v>
   <v>       0.08130935       0.33434529       0.60320464 </v>
   <v>       0.08130935       0.83434529       0.60320464 </v>
   <v>       0.58130935       0.33434529       0.60320464 </v>
   <v>       0.58130935       0.83434529       0.60320464 </v>
   <v>       0.33434529       0.08130935       0.60320464 </v>
   <v>       0.33434529       0.58130935       0.60320464 </v>
   <v>       0.83434529       0.08130935       0.60320464 </v>
   <v>       0.83434529       0.58130935       0.60320464 </v>
   <v>       0.33434529       0.33434529       0.60320464 </v>
   <v>       0.33434529       0.83434529       0.60320464 </v>
   <v>       0.83434529       0.33434529       0.60320464 </v>
   <v>       0.83434529       0.83434529       0.60320464 </v>
   <v>       0.49794034       0.49555877       0.68006359 </v>
   <v>       0.49714648       0.99714648       0.68057248 </v>
   <v>       0.99714648       0.49714648       0.68057248 </v>
   <v>       0.99714648       0.99714648       0.68057248 </v>
   <v>       0.49714648       0.25570704       0.68057248 </v>
   <v>       0.49714648       0.75570704       0.68057248 </v>
   <v>       0.99714648       0.25570704       0.68057248 </v>
   <v>       0.99714648       0.75570704       0.68057248 </v>
   <v>       0.25570704       0.49714648       0.68057248 </v>
   <v>       0.25570704       0.99714648       0.68057248 </v>
   <v>       0.75570704       0.49714648       0.68057248 </v>
   <v>       0.75570704       0.99714648       0.68057248 </v>
   <v>       0.25000000       0.25000000       0.67480871 </v>
   <v>       0.25000000       0.75000000       0.67480871 </v>
   <v>       0.75000000       0.25000000       0.67480871 </v>
   <v>       0.75000000       0.75000000       0.67480871 </v>
   <v>       0.08333333       0.08333333       0.72043888 </v>
   <v>       0.08333333       0.58333333       0.72043888 </v>
   <v>       0.58333333       0.08333333       0.72043888 </v>
   <v>       0.58333333       0.58333333       0.72043888 </v>
  </varray>
 </structure>
 <calculation>
  <scstep>
   <time name="dav">  162.46  162.90</time>
   <time name="total">  163.05  163.50</time>
   <energy>
    <i name="alphaZ">   6463.29446255 </i>
    <i name="ewald"> 664656.29465510 </i>
    <i name="hartreedc">-815411.12920534 </i>
    <i name="XCdc">   5009.43597832 </i>
    <i name="pawpsdc"> 122173.85035501 </i>
    <i name="pawaedc">-138312.01710912 </i>
    <i name="eentropy">     -0.02819041 </i>
    <i name="bandstr">   8852.70695969 </i>
    <i name="atom"> 157518.83071590 </i>
    <i name="e_fr_energy">  10951.23862172 </i>
    <i name="e_wo_entrp">  10951.26681212 </i>
    <i name="e_0_energy">  10951.25271692 </i>
   </energy>
  </scstep>
  <scstep>
   <time name="dav">  171.18  171.59</time>
   <time name="total">  171.21  171.62</time>
   <energy>
    <i name="e_fr_energy">   1073.98622806 </i>
    <i name="e_wo_entrp">   1074.02951832 </i>
    <i name="e_0_energy">   1074.00787319 </i>
   </energy>
  </scstep>
  <scstep>
   <time name="dav">  171.77  172.01</time>
   <time name="total">  171.80  172.04</time>
   <energy>
    <i name="e_fr_energy">   -373.60297105 </i>
    <i name="e_wo_entrp">   -373.53780022 </i>
    <i name="e_0_energy">   -373.57038564 </i>
   </energy>
  </scstep>
  <scstep>
   <time name="dav">  210.57  210.86</time>
   <time name="total">  210.59  210.88</time>
   <energy>
    <i name="e_fr_energy">   -524.80904033 </i>
    <i name="e_wo_entrp">   -524.74562484 </i>
    <i name="e_0_energy">   -524.77733258 </i>
   </energy>
  </scstep>
  <scstep>
   <time name="dav">  157.99  158.29</time>
   <time name="total">  162.93  163.24</time>
   <energy>
    <i name="e_fr_energy">   -530.87831184 </i>
    <i name="e_wo_entrp">   -530.81492603 </i>
    <i name="e_0_energy">   -530.84661893 </i>
   </energy>
  </scstep>
  <scstep>
   <time name="dav">  166.56  166.83</time>
   <time name="total">  171.96  172.24</time>
   <energy>
    <i name="e_fr_energy">   -478.21004714 </i>
    <i name="e_wo_entrp">   -478.15348898 </i>
    <i name="e_0_energy">   -478.18176806 </i>
   </energy>
  </scstep>
  <scstep>
   <time name="dav">  176.67  176.91</time>
   <time name="total">  182.04  182.28</time>
   <energy>
    <i name="e_fr_energy">   -513.05132658 </i>
    <i name="e_wo_entrp">   -512.92159873 </i>
    <i name="e_0_energy">   -512.98646266 </i>
   </energy>
  </scstep>
  <scstep>
   <time name="dav">  212.90  213.23</time>
   <time name="total">  218.22  218.60</time>
   <energy>
    <i name="e_fr_energy">   -445.41188760 </i>
    <i name="e_wo_entrp">   -445.32725844 </i>
    <i name="e_0_energy">   -445.36957302 </i>
   </energy>
  </scstep>
  <scstep>
   <time name="dav">  208.36  208.71</time>
   <time name="total">  215.44  215.84</time>
   <energy>
    <i name="e_fr_energy">   -428.65187070 </i>
    <i name="e_wo_entrp">   -428.61333043 </i>
    <i name="e_0_energy">   -428.63260056 </i>
   </energy>
  </scstep>
  <scstep>
   <time name="dav">  179.80  180.04</time>
   <time name="total">  185.21  185.50</time>
   <energy>
    <i name="e_fr_energy">   -429.34317111 </i>
    <i name="e_wo_entrp">   -429.28999433 </i>
    <i name="e_0_energy">   -429.31658272 </i>
   </energy>
  </scstep>
  <scstep>
   <time name="dav">  217.79  218.23</time>
   <time name="total">  223.12  223.61</time>
   <energy>
    <i name="e_fr_energy">   -427.95781702 </i>
    <i name="e_wo_entrp">   -427.89165677 </i>
    <i name="e_0_energy">   -427.92473689 </i>
   </energy>
  </scstep>
  <scstep>
   <time name="dav">  179.68  180.06</time>
   <time name="total">  185.09  186.18</time>
   <energy>
    <i name="e_fr_energy">   -427.69754662 </i>
    <i name="e_wo_entrp">   -427.64250743 </i>
    <i name="e_0_energy">   -427.67002702 </i>
   </energy>
  </scstep>
  <scstep>
   <time name="dav">  166.73  166.99</time>
   <time name="total">  173.68  174.01</time>
   <energy>
    <i name="e_fr_energy">   -427.64651198 </i>
    <i name="e_wo_entrp">   -427.59170797 </i>
    <i name="e_0_energy">   -427.61910997 </i>
   </energy>
  </scstep>
  <scstep>
   <time name="dav">  167.43  167.68</time>
   <time name="total">  172.77  173.02</time>
   <energy>
    <i name="e_fr_energy">   -427.54213224 </i>
    <i name="e_wo_entrp">   -427.49297052 </i>
    <i name="e_0_energy">   -427.51755138 </i>
   </energy>
  </scstep>
  <scstep>
   <time name="dav">  170.73  171.00</time>
   <time name="total">  177.10  177.38</time>
   <energy>
    <i name="e_fr_energy">   -427.61584239 </i>
    <i name="e_wo_entrp">   -427.56756619 </i>
    <i name="e_0_energy">   -427.59170429 </i>
   </energy>
  </scstep>
  <scstep>
   <time name="dav">  171.82  172.09</time>
   <time name="total">  177.14  177.41</time>
   <energy>
    <i name="e_fr_energy">   -427.51479050 </i>
    <i name="e_wo_entrp">   -427.46530896 </i>
    <i name="e_0_energy">   -427.49004973 </i>
   </energy>
  </scstep>
  <scstep>
   <time name="dav">  171.12  171.36</time>
   <time name="total">  176.47  176.72</time>
   <energy>
    <i name="e_fr_energy">   -427.47958318 </i>
    <i name="e_wo_entrp">   -427.42851790 </i>
    <i name="e_0_energy">   -427.45405054 </i>
   </energy>
  </scstep>
  <scstep>
   <time name="dav">  194.93  195.27</time>
   <time name="total">  200.25  200.59</time>
   <energy>
    <i name="e_fr_energy">   -427.46502216 </i>
    <i name="e_wo_entrp">   -427.41258340 </i>
    <i name="e_0_energy">   -427.43880278 </i>
   </energy>
  </scstep>
  <scstep>
   <time name="dav">  172.02  172.26</time>
   <time name="total">  177.34  177.58</time>
   <energy>
    <i name="e_fr_energy">   -427.46467981 </i>
    <i name="e_wo_entrp">   -427.41165132 </i>
    <i name="e_0_energy">   -427.43816557 </i>
   </energy>
  </scstep>
  <scstep>
   <time name="dav">  157.27  157.50</time>
   <time name="total">  162.65  162.88</time>
   <energy>
    <i name="e_fr_energy">   -427.46527933 </i>
    <i name="e_wo_entrp">   -427.41211024 </i>
    <i name="e_0_energy">   -427.43869478 </i>
   </energy>
  </scstep>
  <scstep>
   <time name="dav">  158.62  158.84</time>
   <time name="total">  163.94  164.17</time>
   <energy>
    <i name="e_fr_energy">   -427.46541281 </i>
    <i name="e_wo_entrp">   -427.41192074 </i>
    <i name="e_0_energy">   -427.43866677 </i>
   </energy>
  </scstep>
  <scstep>
   <time name="dav">  167.27  167.52</time>
   <time name="total">  174.21  174.47</time>
   <energy>
    <i name="e_fr_energy">   -427.46572605 </i>
    <i name="e_wo_entrp">   -427.41234159 </i>
    <i name="e_0_energy">   -427.43903382 </i>
   </energy>
  </scstep>
  <scstep>
   <time name="dav">  161.30  161.48</time>
   <time name="total">  166.68  166.87</time>
   <energy>
    <i name="e_fr_energy">   -427.46567064 </i>
    <i name="e_wo_entrp">   -427.41241785 </i>
    <i name="e_0_energy">   -427.43904425 </i>
   </energy>
  </scstep>
  <scstep>
   <time name="dav">  163.06  163.38</time>
   <time name="total">  168.40  168.72</time>
   <energy>
    <i name="e_fr_energy">   -427.46580646 </i>
    <i name="e_wo_entrp">   -427.41255148 </i>
    <i name="e_0_energy">   -427.43917897 </i>
   </energy>
  </scstep>
  <scstep>
   <time name="dav">  177.13  177.38</time>
   <time name="total">  182.48  182.73</time>
   <energy>
    <i name="e_fr_energy">   -427.46597411 </i>
    <i name="e_wo_entrp">   -427.41275267 </i>
    <i name="e_0_energy">   -427.43936339 </i>
   </energy>
  </scstep>
  <scstep>
   <time name="dav">  181.48  181.76</time>
   <time name="total">  187.13  187.42</time>
   <energy>
    <i name="e_fr_energy">   -427.46620257 </i>
    <i name="e_wo_entrp">   -427.41296916 </i>
    <i name="e_0_energy">   -427.43958587 </i>
   </energy>
  </scstep>
  <scstep>
   <time name="dav">  157.75  157.98</time>
   <time name="total">  163.11  163.33</time>
   <energy>
    <i name="e_fr_energy">   -427.46645371 </i>
    <i name="e_wo_entrp">   -427.41322445 </i>
    <i name="e_0_energy">   -427.43983908 </i>
   </energy>
  </scstep>
  <scstep>
   <time name="dav">  157.65  157.83</time>
   <time name="total">  162.99  163.18</time>
   <energy>
    <i name="e_fr_energy">   -427.46663695 </i>
    <i name="e_wo_entrp">   -427.41342969 </i>
    <i name="e_0_energy">   -427.44003332 </i>
   </energy>
  </scstep>
  <scstep>
   <time name="dav">  154.11  154.27</time>
   <time name="total">  159.46  159.62</time>
   <energy>
    <i name="e_fr_energy">   -427.46678021 </i>
    <i name="e_wo_entrp">   -427.41359038 </i>
    <i name="e_0_energy">   -427.44018530 </i>
   </energy>
  </scstep>
  <scstep>
   <time name="dav">  162.33  162.49</time>
   <time name="total">  167.66  167.82</time>
   <energy>
    <i name="e_fr_energy">   -427.46690455 </i>
    <i name="e_wo_entrp">   -427.41371197 </i>
    <i name="e_0_energy">   -427.44030826 </i>
   </energy>
  </scstep>
  <scstep>
   <time name="dav">  154.29  154.44</time>
   <time name="total">  159.62  159.77</time>
   <energy>
    <i name="e_fr_energy">   -427.46698911 </i>
    <i name="e_wo_entrp">   -427.41378069 </i>
    <i name="e_0_energy">   -427.44038490 </i>
   </energy>
  </scstep>
  <scstep>
   <time name="dav">  156.86  157.01</time>
   <time name="total">  162.19  162.35</time>
   <energy>
    <i name="e_fr_energy">   -427.46705418 </i>
    <i name="e_wo_entrp">   -427.41383030 </i>
    <i name="e_0_energy">   -427.44044224 </i>
   </energy>
  </scstep>
  <scstep>
   <time name="dav">  120.78  120.90</time>
   <time name="total">  126.12  126.25</time>
   <energy>
    <i name="e_fr_energy">   -427.46707746 </i>
    <i name="e_wo_entrp">   -427.41385398 </i>
    <i name="e_0_energy">   -427.44046572 </i>
   </energy>
  </scstep>
  <scstep>
   <time name="dav">  117.75  117.86</time>
   <time name="total">  123.08  123.20</time>
   <energy>
    <i name="e_fr_energy">   -427.46710072 </i>
    <i name="e_wo_entrp">   -427.41388734 </i>
    <i name="e_0_energy">   -427.44049403 </i>
   </energy>
  </scstep>
  <scstep>
   <time name="dav">  114.58  114.69</time>
   <time name="total">  119.94  120.06</time>
   <energy>
    <i name="e_fr_energy">   -427.46711753 </i>
    <i name="e_wo_entrp">   -427.41390619 </i>
    <i name="e_0_energy">   -427.44051186 </i>
   </energy>
  </scstep>
  <scstep>
   <time name="dav">  113.16  113.28</time>
   <time name="total">  118.50  118.63</time>
   <energy>
    <i name="e_fr_energy">   -427.46712778 </i>
    <i name="e_wo_entrp">   -427.41391786 </i>
    <i name="e_0_energy">   -427.44052282 </i>
   </energy>
  </scstep>
  <scstep>
   <time name="dav">  114.43  114.56</time>
   <time name="total">  119.74  119.87</time>
   <energy>
    <i name="e_fr_energy">   -427.46713604 </i>
    <i name="e_wo_entrp">   -427.41392529 </i>
    <i name="e_0_energy">   -427.44053066 </i>
   </energy>
  </scstep>
  <scstep>
   <time name="dav">  114.74  114.88</time>
   <time name="total">  120.06  120.20</time>
   <energy>
    <i name="e_fr_energy">   -427.46713902 </i>
    <i name="e_wo_entrp">   -427.41392722 </i>
    <i name="e_0_energy">   -427.44053312 </i>
   </energy>
  </scstep>
  <scstep>
   <time name="dav">  113.55  113.67</time>
   <time name="total">  118.88  119.01</time>
   <energy>
    <i name="e_fr_energy">   -427.46714065 </i>
    <i name="e_wo_entrp">   -427.41392869 </i>
    <i name="e_0_energy">   -427.44053467 </i>
   </energy>
  </scstep>
  <scstep>
   <time name="dav">  112.08  112.21</time>
   <time name="total">  117.40  117.55</time>
   <energy>
    <i name="e_fr_energy">   -427.46714183 </i>
    <i name="e_wo_entrp">   -427.41392947 </i>
    <i name="e_0_energy">   -427.44053565 </i>
   </energy>
  </scstep>
  <scstep>
   <time name="dav">  117.04  117.16</time>
   <time name="total">  117.54  117.67</time>
   <energy>
    <i name="alphaZ">   6463.29446255 </i>
    <i name="ewald"> 664656.29465510 </i>
    <i name="hartreedc">-813446.40360291 </i>
    <i name="XCdc">   4896.83055833 </i>
    <i name="pawpsdc"> 123759.79854163 </i>
    <i name="pawaedc">-139976.85183656 </i>
    <i name="eentropy">     -0.05321237 </i>
    <i name="bandstr">  -4299.20742409 </i>
    <i name="atom"> 157518.83071590 </i>
    <i name="e_fr_energy">   -427.46714241 </i>
    <i name="e_wo_entrp">   -427.41393005 </i>
    <i name="e_0_energy">   -427.44053623 </i>
   </energy>
  </scstep>
  <structure>
   <crystal>
    <varray name="basis" >
     <v>      10.28518105       0.00000000       0.00000000 </v>
     <v>       5.14259052       8.90722807       0.00000000 </v>
     <v>       0.00000000       0.00000000      27.79016876 </v>
    </varray>
    <i name="volume">   2545.92553775 </i>
    <varray name="rec_basis" >
     <v>       0.09722726      -0.05613419       0.00000000 </v>
     <v>       0.00000000       0.11226837       0.00000000 </v>
     <v>       0.00000000       0.00000000       0.03598395 </v>
    </varray>
   </crystal>
   <varray name="positions" >
    <v>       0.00000000       0.00000000       0.22663990 </v>
    <v>       0.00000000       0.50000000       0.22663990 </v>
    <v>       0.50000000       0.00000000       0.22663990 </v>
    <v>       0.50000000       0.50000000       0.22663990 </v>
    <v>       0.00000000       0.25000000       0.22663990 </v>
    <v>       0.00000000       0.75000000       0.22663990 </v>
    <v>       0.50000000       0.25000000       0.22663990 </v>
    <v>       0.50000000       0.75000000       0.22663990 </v>
    <v>       0.25000000       0.00000000       0.22663990 </v>
    <v>       0.25000000       0.50000000       0.22663990 </v>
    <v>       0.75000000       0.00000000       0.22663990 </v>
    <v>       0.75000000       0.50000000       0.22663990 </v>
    <v>       0.25000000       0.25000000       0.22663990 </v>
    <v>       0.25000000       0.75000000       0.22663990 </v>
    <v>       0.75000000       0.25000000       0.22663990 </v>
    <v>       0.75000000       0.75000000       0.22663990 </v>
    <v>       0.16666666       0.16666666       0.30218653 </v>
    <v>       0.16666666       0.66666666       0.30218653 </v>
    <v>       0.66666666       0.16666666       0.30218653 </v>
    <v>       0.66666666       0.66666666       0.30218653 </v>
    <v>       0.16666666       0.41666666       0.30218653 </v>
    <v>       0.16666666       0.91666666       0.30218653 </v>
    <v>       0.66666666       0.41666666       0.30218653 </v>
    <v>       0.66666666       0.91666666       0.30218653 </v>
    <v>       0.41666666       0.16666666       0.30218653 </v>
    <v>       0.41666666       0.66666666       0.30218653 </v>
    <v>       0.91666666       0.16666666       0.30218653 </v>
    <v>       0.91666666       0.66666666       0.30218653 </v>
    <v>       0.41666666       0.41666666       0.30218653 </v>
    <v>       0.41666666       0.91666666       0.30218653 </v>
    <v>       0.91666666       0.41666666       0.30218653 </v>
    <v>       0.91666666       0.91666666       0.30218653 </v>
    <v>       0.08333333       0.08333333       0.37716320 </v>
    <v>       0.08333333       0.58333333       0.37716320 </v>
    <v>       0.58333333       0.08333333       0.37716320 </v>
    <v>       0.58333333       0.58333333       0.37716320 </v>
    <v>       0.08351614       0.33324190       0.37729758 </v>
    <v>       0.08351614       0.83324190       0.37729758 </v>
    <v>       0.58351614       0.33324190       0.37729758 </v>
    <v>       0.58351614       0.83324190       0.37729758 </v>
    <v>       0.33324190       0.08351614       0.37729758 </v>
    <v>       0.33324190       0.58351614       0.37729758 </v>
    <v>       0.83324190       0.08351614       0.37729758 </v>
    <v>       0.83324190       0.58351614       0.37729758 </v>
    <v>       0.33324190       0.33324190       0.37729758 </v>
    <v>       0.33324190       0.83324190       0.37729758 </v>
    <v>       0.83324190       0.33324190       0.37729758 </v>
    <v>       0.83324190       0.83324190       0.37729758 </v>
    <v>       0.00012997       0.00012997       0.45242342 </v>
    <v>       0.00012997       0.50012997       0.45242342 </v>
    <v>       0.50012997       0.00012997       0.45242342 </v>
    <v>       0.50012997       0.50012997       0.45242342 </v>
    <v>       0.00012997       0.24974005       0.45242342 </v>
    <v>       0.00012997       0.74974005       0.45242342 </v>
    <v>       0.50012997       0.24974005       0.45242342 </v>
    <v>       0.50012997       0.74974005       0.45242342 </v>
    <v>       0.24974005       0.00012997       0.45242342 </v>
    <v>       0.24974005       0.50012997       0.45242342 </v>
    <v>       0.74974005       0.00012997       0.45242342 </v>
    <v>       0.74974005       0.50012997       0.45242342 </v>
    <v>       0.25000000       0.25000000       0.45288750 </v>
    <v>       0.25000000       0.75000000       0.45288750 </v>
    <v>       0.75000000       0.25000000       0.45288750 </v>
    <v>       0.75000000       0.75000000       0.45288750 </v>
    <v>       0.16660598       0.16660598       0.52813907 </v>
    <v>       0.16660598       0.66660598       0.52813907 </v>
    <v>       0.66660598       0.16660598       0.52813907 </v>
    <v>       0.66660598       0.66660598       0.52813907 </v>
    <v>       0.16660598       0.41678801       0.52813907 </v>
    <v>       0.16660598       0.91678801       0.52813907 </v>
    <v>       0.66660598       0.41678801       0.52813907 </v>
    <v>       0.66660598       0.91678801       0.52813907 </v>
    <v>       0.41678801       0.16660598       0.52813907 </v>
    <v>       0.41678801       0.66660598       0.52813907 </v>
    <v>       0.91678801       0.16660598       0.52813907 </v>
    <v>       0.91678801       0.66660598       0.52813907 </v>
    <v>       0.41666666       0.41666666       0.52741939 </v>
    <v>       0.41666666       0.91666666       0.52741939 </v>
    <v>       0.91666666       0.41666666       0.52741939 </v>
    <v>       0.91666666       0.91666666       0.52741939 </v>
    <v>       0.08333333       0.08333333       0.60253339 </v>
    <v>       0.08333333       0.58333333       0.60253339 </v>
    <v>       0.58333333       0.08333333       0.60253339 </v>
    <v>       0.58333333       0.58333333       0.60253339 </v>
    <v>       0.08130935       0.33434529       0.60320464 </v>
    <v>       0.08130935       0.83434529       0.60320464 </v>
    <v>       0.58130935       0.33434529       0.60320464 </v>
    <v>       0.58130935       0.83434529       0.60320464 </v>
    <v>       0.33434529       0.08130935       0.60320464 </v>
    <v>       0.33434529       0.58130935       0.60320464 </v>
    <v>       0.83434529       0.08130935       0.60320464 </v>
    <v>       0.83434529       0.58130935       0.60320464 </v>
    <v>       0.33434529       0.33434529       0.60320464 </v>
    <v>       0.33434529       0.83434529       0.60320464 </v>
    <v>       0.83434529       0.33434529       0.60320464 </v>
    <v>       0.83434529       0.83434529       0.60320464 </v>
    <v>       0.49794034       0.49555877       0.68006359 </v>
    <v>       0.49714648       0.99714648       0.68057248 </v>
    <v>       0.99714648       0.49714648       0.68057248 </v>
    <v>       0.99714648       0.99714648       0.68057248 </v>
    <v>       0.49714648       0.25570704       0.68057248 </v>
    <v>       0.49714648       0.75570704       0.68057248 </v>
    <v>       0.99714648       0.25570704       0.68057248 </v>
    <v>       0.99714648       0.75570704       0.68057248 </v>
    <v>       0.25570704       0.49714648       0.68057248 </v>
    <v>       0.25570704       0.99714648       0.68057248 </v>
    <v>       0.75570704       0.49714648       0.68057248 </v>
    <v>       0.75570704       0.99714648       0.68057248 </v>
    <v>       0.25000000       0.25000000       0.67480871 </v>
    <v>       0.25000000       0.75000000       0.67480871 </v>
    <v>       0.75000000       0.25000000       0.67480871 </v>
    <v>       0.75000000       0.75000000       0.67480871 </v>
    <v>       0.08333333       0.08333333       0.72043888 </v>
    <v>       0.08333333       0.58333333       0.72043888 </v>
    <v>       0.58333333       0.08333333       0.72043888 </v>
    <v>       0.58333333       0.58333333       0.72043888 </v>
   </varray>
  </structure>
  <varray name="forces" >
   <v>       0.00789811       0.00460712       0.07158200 </v>
   <v>       0.00794274       0.00452134       0.07165308 </v>
   <v>       0.00792303       0.00459470       0.07166585 </v>
   <v>       0.00781965       0.00461284       0.07185451 </v>
   <v>      -0.00004167      -0.00917711       0.07159831 </v>
   <v>       0.00003073      -0.00908777       0.07172750 </v>
   <v>      -0.00011034      -0.00914489       0.07149162 </v>
   <v>       0.00007531      -0.00914045       0.07151591 </v>
   <v>      -0.00794625       0.00453288       0.07170851 </v>
   <v>      -0.00783088       0.00456534       0.07156308 </v>
   <v>      -0.00790890       0.00449222       0.07171409 </v>
   <v>      -0.00788674       0.00461533       0.07169259 </v>
   <v>      -0.00000384       0.00000669       0.08632526 </v>
   <v>       0.00005041       0.00003306       0.08632862 </v>
   <v>       0.00010664       0.00002962       0.08619701 </v>
   <v>      -0.00006818       0.00004271       0.08640875 </v>
   <v>       0.00694054       0.00408018      -0.07988119 </v>
   <v>       0.00690753       0.00409495      -0.07990208 </v>
   <v>       0.00699140       0.00391799      -0.07992583 </v>
   <v>       0.00701755       0.00406225      -0.08002781 </v>
   <v>      -0.00005423      -0.00818158      -0.07997327 </v>
   <v>       0.00013649      -0.00814755      -0.08007740 </v>
   <v>      -0.00003087      -0.00806141      -0.07987059 </v>
   <v>       0.00003309      -0.00809987      -0.07999361 </v>
   <v>      -0.00709477       0.00402070      -0.07998158 </v>
   <v>      -0.00710043       0.00401244      -0.07991011 </v>
   <v>      -0.00696991       0.00412916      -0.08001055 </v>
   <v>      -0.00688058       0.00403537      -0.08003925 </v>
   <v>      -0.00002456       0.00006908      -0.05926084 </v>
   <v>       0.00005519      -0.00002388      -0.05915062 </v>
   <v>      -0.00002444       0.00001743      -0.05916011 </v>
   <v>      -0.00000446       0.00000451      -0.05912948 </v>
   <v>       0.00007272       0.00001009      -0.00009052 </v>
   <v>      -0.00004530       0.00000393       0.00010985 </v>
   <v>      -0.00004287      -0.00013353       0.00012436 </v>
   <v>       0.00007864      -0.00000496      -0.00005228 </v>
   <v>       0.00005612       0.00002486      -0.00006966 </v>
   <v>       0.00002460      -0.00000343      -0.00009213 </v>
   <v>      -0.00008962       0.00014296       0.00000278 </v>
   <v>      -0.00005027       0.00000699       0.00009216 </v>
   <v>       0.00005661      -0.00000784      -0.00021485 </v>
   <v>       0.00002347      -0.00012372      -0.00006964 </v>
   <v>       0.00000558       0.00002100      -0.00003519 </v>
   <v>      -0.00007480      -0.00000826       0.00006757 </v>
   <v>      -0.00000287       0.00008582      -0.00007195 </v>
   <v>      -0.00006379       0.00009641       0.00005083 </v>
   <v>      -0.00000232      -0.00006149       0.00008854 </v>
   <v>      -0.00001772      -0.00000347      -0.00011342 </v>
   <v>      -0.00004786      -0.00002727       0.00011674 </v>
   <v>      -0.00005063      -0.00000337       0.00011531 </v>
   <v>       0.00009140       0.00001718       0.00017590 </v>
   <v>       0.00007977      -0.00000378       0.00013475 </v>
   <v>       0.00019038      -0.00005863       0.00003323 </v>
   <v>       0.00001052       0.00009190      -0.00018664 </v>
   <v>      -0.00015378       0.00006203      -0.00004221 </v>
   <v>      -0.00008327      -0.00004764       0.00002010 </v>
   <v>       0.00003314       0.00013934       0.00002781 </v>
   <v>       0.00001484      -0.00003640       0.00017857 </v>
   <v>       0.00009628      -0.00021657      -0.00009275 </v>
   <v>      -0.00005693       0.00002052       0.00004735 </v>
   <v>      -0.00006797      -0.00011406       0.00002802 </v>
   <v>      -0.00000303      -0.00007136       0.00001077 </v>
   <v>      -0.00010203       0.00003524      -0.00009791 </v>
   <v>       0.00013742       0.00009388      -0.00009038 </v>
   <v>       0.00006914      -0.00008311      -0.00001720 </v>
   <v>      -0.00016793       0.00013074      -0.00012740 </v>
   <v>      -0.00009849       0.00014626       0.00001794 </v>
   <v>      -0.00005886      -0.00001066      -0.00029140 </v>
   <v>       0.00015517      -0.00003553      -0.00003562 </v>
   <v>       0.00012778      -0.00000751      -0.00015757 </v>
   <v>       0.00028079      -0.00037631      -0.00076020 </v>
   <v>      -0.00001889      -0.00000121      -0.00028306 </v>
   <v>       0.00029933       0.00022198       0.00000796 </v>
   <v>       0.00015907       0.00022741      -0.00059939 </v>
   <v>      -0.00013013       0.00024015       0.00022136 </v>
   <v>      -0.00004241       0.00000107      -0.00012303 </v>
   <v>       0.00002285      -0.00026635      -0.00119003 </v>
   <v>      -0.00010322      -0.00002732      -0.00005823 </v>
   <v>      -0.00016194       0.00003476       0.00016931 </v>
   <v>      -0.00007238      -0.00009620       0.00003369 </v>
   <v>      -0.00019658       0.00022439      -0.00019793 </v>
   <v>       0.00044897      -0.00004241       0.00003107 </v>
   <v>      -0.00048533      -0.00132738      -0.00078124 </v>
   <v>       0.00431407       0.00378259      -0.00537555 </v>
   <v>      -0.00033504       0.00015505       0.00002306 </v>
   <v>       0.00041906      -0.00041565      -0.00001853 </v>
   <v>      -0.00057212      -0.01640800      -0.02427570 </v>
   <v>       0.00012941       0.00018756      -0.00074456 </v>
   <v>       0.00011546      -0.00000469      -0.00032659 </v>
   <v>      -0.00574561       0.00619205      -0.01055205 </v>
   <v>       0.00041203      -0.00097421      -0.00111928 </v>
   <v>       0.00078701       0.00021361      -0.00078211 </v>
   <v>      -0.00128732      -0.00016774      -0.00077571 </v>
   <v>       0.00003358      -0.00060832       0.00023718 </v>
   <v>       0.00029764       0.00007706      -0.00033868 </v>
   <v>      -0.00052428      -0.00006284       0.00008672 </v>
   <v>       0.08703746       0.12534954       0.09972176 </v>
   <v>       0.00002975       0.00059518      -0.00076336 </v>
   <v>      -0.00024865       0.00030277      -0.00066543 </v>
   <v>       0.00047807      -0.00013478      -0.00017240 </v>
   <v>      -0.01375146      -0.03061730       0.00151148 </v>
   <v>      -0.00806477      -0.02465073       0.00827723 </v>
   <v>       0.00017719       0.00006335      -0.00074633 </v>
   <v>       0.00052702      -0.00001810      -0.00047873 </v>
   <v>      -0.00537125       0.00122585       0.00062602 </v>
   <v>       0.00019732      -0.00114896      -0.00041349 </v>
   <v>      -0.01018170       0.00467322       0.00726073 </v>
   <v>       0.00028104      -0.00077078      -0.00076797 </v>
   <v>      -0.00023296      -0.00002085      -0.00002082 </v>
   <v>       0.00967114      -0.01329298       0.00105086 </v>
   <v>       0.01121952      -0.01683068       0.00106330 </v>
   <v>      -0.00055935      -0.00092266       0.00044097 </v>
   <v>      -0.00055069       0.00038316       0.00068362 </v>
   <v>       0.00218364      -0.00043160       0.00108436 </v>
   <v>      -0.00256344      -0.00108345       0.00133019 </v>
   <v>      -0.06831254      -0.03354926      -0.07975672 </v>
  </varray>
  <varray name="stress" >
   <v>      -2.12585043      -0.02193847      -0.04855476 </v>
   <v>      -0.02193849      -2.05146410      -0.01009906 </v>
   <v>      -0.04855480      -0.01009908      -2.16330751 </v>
  </varray>
  <energy>
   <i name="e_fr_energy">   -427.46714241 </i>
   <i name="e_wo_entrp">   -427.44053623 </i>
   <i name="e_0_energy">     -0.05321237 </i>
  </energy>
  <time name="totalsc"> 7055.53 7066.64</time>
  <eigenvalues>
   <array>
    <dimension dim="1">band</dimension>
    <dimension dim="2">kpoint</dimension>
    <dimension dim="3">spin</dimension>
    <field>eigene</field>
    <field>occ</field>
    <set>
     <set comment="spin 1">
      <set comment="kpoint 1">
       <r>  -18.6046    1.0000 </r>
       <r>  -18.5944    1.0000 </r>
       <r>  -18.5942    1.0000 </r>
       <r>  -18.5583    1.0000 </r>
       <r>   -9.4539    1.0000 </r>
       <r>   -8.9617    1.0000 </r>
       <r>   -8.1750    1.0000 </r>
       <r>   -7.6007    1.0000 </r>
       <r>   -7.5999    1.0000 </r>
       <r>   -7.5998    1.0000 </r>
       <r>   -7.5782    1.0000 </r>
       <r>   -7.5780    1.0000 </r>
       <r>   -7.5779    1.0000 </r>
       <r>   -7.2216    1.0000 </r>
       <r>   -7.2200    1.0000 </r>
       <r>   -7.2195    1.0000 </r>
       <r>   -7.2007    1.0000 </r>
       <r>   -7.1467    1.0000 </r>
       <r>   -7.1461    1.0000 </r>
       <r>   -7.1461    1.0000 </r>
       <r>   -6.6284    1.0000 </r>
       <r>   -6.6274    1.0000 </r>
       <r>   -6.6262    1.0000 </r>
       <r>   -6.4866    1.0000 </r>
       <r>   -6.4860    1.0000 </r>
       <r>   -6.4856    1.0000 </r>
       <r>   -6.2518    1.0000 </r>
       <r>   -5.9489    1.0000 </r>
       <r>   -5.9469    1.0000 </r>
       <r>   -5.9458    1.0000 </r>
       <r>   -5.7427    1.0000 </r>
       <r>   -5.7424    1.0000 </r>
       <r>   -5.7406    1.0000 </r>
       <r>   -5.6687    1.0000 </r>
       <r>   -5.6202    1.0000 </r>
       <r>   -5.6192    1.0000 </r>
       <r>   -5.4390    1.0000 </r>
       <r>   -5.4107    1.0000 </r>
       <r>   -5.4011    1.0000 </r>
       <r>   -5.3968    1.0000 </r>
       <r>   -5.3419    1.0000 </r>
       <r>   -5.3384    1.0000 </r>
       <r>   -5.3360    1.0000 </r>
       <r>   -5.3248    1.0000 </r>
       <r>   -5.2835    1.0000 </r>
       <r>   -5.2833    1.0000 </r>
       <r>   -5.2155    1.0000 </r>
       <r>   -5.2096    1.0000 </r>
       <r>   -5.2093    1.0000 </r>
       <r>   -5.1986    1.0000 </r>
       <r>   -5.1350    1.0000 </r>
       <r>   -5.1348    1.0000 </r>
       <r>   -5.1242    1.0000 </r>
       <r>   -5.0564    1.0000 </r>
       <r>   -5.0341    1.0000 </r>
       <r>   -5.0339    1.0000 </r>
       <r>   -5.0049    1.0000 </r>
       <r>   -5.0044    1.0000 </r>
       <r>   -5.0037    1.0000 </r>
       <r>   -4.9785    1.0000 </r>
       <r>   -4.9784    1.0000 </r>
       <r>   -4.9783    1.0000 </r>
       <r>   -4.9633    1.0000 </r>
       <r>   -4.9630    1.0000 </r>
       <r>   -4.9574    1.0000 </r>
       <r>   -4.9568    1.0000 </r>
       <r>   -4.9566    1.0000 </r>
       <r>   -4.9362    1.0000 </r>
       <r>   -4.8836    1.0000 </r>
       <r>   -4.8831    1.0000 </r>
       <r>   -4.8829    1.0000 </r>
       <r>   -4.8541    1.0000 </r>
       <r>   -4.8540    1.0000 </r>
       <r>   -4.8538    1.0000 </r>
       <r>   -4.8415    1.0000 </r>
       <r>   -4.8256    1.0000 </r>
       <r>   -4.8255    1.0000 </r>
       <r>   -4.8121    1.0000 </r>
       <r>   -4.8119    1.0000 </r>
       <r>   -4.8103    1.0000 </r>
       <r>   -4.7503    1.0000 </r>
       <r>   -4.7499    1.0000 </r>
       <r>   -4.7496    1.0000 </r>
       <r>   -4.7070    1.0000 </r>
       <r>   -4.7069    1.0000 </r>
       <r>   -4.7067    1.0000 </r>
       <r>   -4.7036    1.0000 </r>
       <r>   -4.6952    1.0000 </r>
       <r>   -4.6951    1.0000 </r>
       <r>   -4.6234    1.0000 </r>
       <r>   -4.6224    1.0000 </r>
       <r>   -4.6217    1.0000 </r>
       <r>   -4.5870    1.0000 </r>
       <r>   -4.5869    1.0000 </r>
       <r>   -4.5865    1.0000 </r>
       <r>   -4.5828    1.0000 </r>
       <r>   -4.5790    1.0000 </r>
       <r>   -4.5789    1.0000 </r>
       <r>   -4.5464    1.0000 </r>
       <r>   -4.5397    1.0000 </r>
       <r>   -4.5395    1.0000 </r>
       <r>   -4.5390    1.0000 </r>
       <r>   -4.5388    1.0000 </r>
       <r>   -4.5386    1.0000 </r>
       <r>   -4.5286    1.0000 </r>
       <r>   -4.5285    1.0000 </r>
       <r>   -4.5284    1.0000 </r>
       <r>   -4.5050    1.0000 </r>
       <r>   -4.5046    1.0000 </r>
       <r>   -4.5044    1.0000 </r>
       <r>   -4.4613    1.0000 </r>
       <r>   -4.4612    1.0000 </r>
       <r>   -4.4610    1.0000 </r>
       <r>   -4.4553    1.0000 </r>
       <r>   -4.4552    1.0000 </r>
       <r>   -4.4552    1.0000 </r>
       <r>   -4.4480    1.0000 </r>
       <r>   -4.4475    1.0000 </r>
       <r>   -4.4470    1.0000 </r>
       <r>   -4.4083    1.0000 </r>
       <r>   -4.4062    1.0000 </r>
       <r>   -4.4055    1.0000 </r>
       <r>   -4.3896    1.0000 </r>
       <r>   -4.3883    1.0000 </r>
       <r>   -4.3511    1.0000 </r>
       <r>   -4.3504    1.0000 </r>
       <r>   -4.3490    1.0000 </r>
       <r>   -4.3383    1.0000 </r>
       <r>   -4.2439    1.0000 </r>
       <r>   -4.2421    1.0000 </r>
       <r>   -4.2297    1.0000 </r>
       <r>   -4.2293    1.0000 </r>
       <r>   -4.2293    1.0000 </r>
       <r>   -4.2208    1.0000 </r>
       <r>   -4.2207    1.0000 </r>
       <r>   -4.2204    1.0000 </r>
       <r>   -4.2185    1.0000 </r>
       <r>   -4.2182    1.0000 </r>
       <r>   -4.2181    1.0000 </r>
       <r>   -4.2148    1.0000 </r>
       <r>   -4.2147    1.0000 </r>
       <r>   -4.2147    1.0000 </r>
       <r>   -4.2123    1.0000 </r>
       <r>   -4.2119    1.0000 </r>
       <r>   -4.2116    1.0000 </r>
       <r>   -4.1803    1.0000 </r>
       <r>   -4.1800    1.0000 </r>
       <r>   -4.1798    1.0000 </r>
       <r>   -4.0984    1.0000 </r>
       <r>   -4.0978    1.0000 </r>
       <r>   -4.0977    1.0000 </r>
       <r>   -4.0804    1.0000 </r>
       <r>   -4.0793    1.0000 </r>
       <r>   -4.0789    1.0000 </r>
       <r>   -4.0776    1.0000 </r>
       <r>   -4.0771    1.0000 </r>
       <r>   -4.0770    1.0000 </r>
       <r>   -4.0574    1.0000 </r>
       <r>   -4.0572    1.0000 </r>
       <r>   -4.0571    1.0000 </r>
       <r>   -4.0458    1.0000 </r>
       <r>   -4.0450    1.0000 </r>
       <r>   -4.0448    1.0000 </r>
       <r>   -4.0179    1.0000 </r>
       <r>   -4.0053    1.0000 </r>
       <r>   -4.0050    1.0000 </r>
       <r>   -4.0048    1.0000 </r>
       <r>   -3.9706    1.0000 </r>
       <r>   -3.9699    1.0000 </r>
       <r>   -3.9390    1.0000 </r>
       <r>   -3.9389    1.0000 </r>
       <r>   -3.9387    1.0000 </r>
       <r>   -3.9303    1.0000 </r>
       <r>   -3.9295    1.0000 </r>
       <r>   -3.9293    1.0000 </r>
       <r>   -3.9105    1.0000 </r>
       <r>   -3.9100    1.0000 </r>
       <r>   -3.9098    1.0000 </r>
       <r>   -3.8807    1.0000 </r>
       <r>   -3.8800    1.0000 </r>
       <r>   -3.8798    1.0000 </r>
       <r>   -3.8788    1.0000 </r>
       <r>   -3.8776    1.0000 </r>
       <r>   -3.8772    1.0000 </r>
       <r>   -3.8326    1.0000 </r>
       <r>   -3.8319    1.0000 </r>
       <r>   -3.8315    1.0000 </r>
       <r>   -3.8311    1.0000 </r>
       <r>   -3.8128    1.0000 </r>
       <r>   -3.8126    1.0000 </r>
       <r>   -3.8126    1.0000 </r>
       <r>   -3.7991    1.0000 </r>
       <r>   -3.7990    1.0000 </r>
       <r>   -3.7989    1.0000 </r>
       <r>   -3.7876    1.0000 </r>
       <r>   -3.7869    1.0000 </r>
       <r>   -3.7866    1.0000 </r>
       <r>   -3.7756    1.0000 </r>
       <r>   -3.7754    1.0000 </r>
       <r>   -3.7752    1.0000 </r>
       <r>   -3.7522    1.0000 </r>
       <r>   -3.7516    1.0000 </r>
       <r>   -3.7513    1.0000 </r>
       <r>   -3.7098    1.0000 </r>
       <r>   -3.7096    1.0000 </r>
       <r>   -3.7095    1.0000 </r>
       <r>   -3.7078    1.0000 </r>
       <r>   -3.7077    1.0000 </r>
       <r>   -3.7076    1.0000 </r>
       <r>   -3.6837    1.0000 </r>
       <r>   -3.6828    1.0000 </r>
       <r>   -3.6825    1.0000 </r>
       <r>   -3.6774    1.0000 </r>
       <r>   -3.6773    1.0000 </r>
       <r>   -3.6772    1.0000 </r>
       <r>   -3.6695    1.0000 </r>
       <r>   -3.6693    1.0000 </r>
       <r>   -3.6432    1.0000 </r>
       <r>   -3.6411    1.0000 </r>
       <r>   -3.6402    1.0000 </r>
       <r>   -3.6181    1.0000 </r>
       <r>   -3.6170    1.0000 </r>
       <r>   -3.6162    1.0000 </r>
       <r>   -3.6159    1.0000 </r>
       <r>   -3.6037    1.0000 </r>
       <r>   -3.6033    1.0000 </r>
       <r>   -3.6030    1.0000 </r>
       <r>   -3.6019    1.0000 </r>
       <r>   -3.6015    1.0000 </r>
       <r>   -3.6011    1.0000 </r>
       <r>   -3.5984    1.0000 </r>
       <r>   -3.5980    1.0000 </r>
       <r>   -3.5980    1.0000 </r>
       <r>   -3.5819    1.0000 </r>
       <r>   -3.5818    1.0000 </r>
       <r>   -3.5815    1.0000 </r>
       <r>   -3.5518    1.0000 </r>
       <r>   -3.5515    1.0000 </r>
       <r>   -3.5503    1.0000 </r>
       <r>   -3.5380    1.0000 </r>
       <r>   -3.5309    1.0000 </r>
       <r>   -3.5124    1.0000 </r>
       <r>   -3.5121    1.0000 </r>
       <r>   -3.4485    1.0000 </r>
       <r>   -3.4484    1.0000 </r>
       <r>   -3.4478    1.0000 </r>
       <r>   -3.4425    1.0000 </r>
       <r>   -3.4345    1.0000 </r>
       <r>   -3.4344    1.0000 </r>
       <r>   -3.4342    1.0000 </r>
       <r>   -3.4289    1.0000 </r>
       <r>   -3.4287    1.0000 </r>
       <r>   -3.4287    1.0000 </r>
       <r>   -3.4198    1.0000 </r>
       <r>   -3.4196    1.0000 </r>
       <r>   -3.4188    1.0000 </r>
       <r>   -3.4186    1.0000 </r>
       <r>   -3.4182    1.0000 </r>
       <r>   -3.4166    1.0000 </r>
       <r>   -3.4164    1.0000 </r>
       <r>   -3.4162    1.0000 </r>
       <r>   -3.4106    1.0000 </r>
       <r>   -3.3992    1.0000 </r>
       <r>   -3.3990    1.0000 </r>
       <r>   -3.3981    1.0000 </r>
       <r>   -3.3871    1.0000 </r>
       <r>   -3.3871    1.0000 </r>
       <r>   -3.3758    1.0000 </r>
       <r>   -3.3639    1.0000 </r>
       <r>   -3.3638    1.0000 </r>
       <r>   -3.3628    1.0000 </r>
       <r>   -3.3507    1.0000 </r>
       <r>   -3.3506    1.0000 </r>
       <r>   -3.3490    1.0000 </r>
       <r>   -3.3461    1.0000 </r>
       <r>   -3.3441    1.0000 </r>
       <r>   -3.3373    1.0000 </r>
       <r>   -3.3362    1.0000 </r>
       <r>   -3.3349    1.0000 </r>
       <r>   -3.3158    1.0000 </r>
       <r>   -3.3157    1.0000 </r>
       <r>   -3.3054    1.0000 </r>
       <r>   -3.3049    1.0000 </r>
       <r>   -3.3043    1.0000 </r>
[...]
       <r>   -14.5206     0.0000     8.0000 </r>
       <r>   -14.4264     0.0000     8.0000 </r>
       <r>   -14.3322     0.0000     8.0000 </r>
       <r>   -14.2380     0.0000     8.0000 </r>
       <r>   -14.1439     0.0000     8.0000 </r>
       <r>   -14.0497     0.0000     8.0000 </r>
       <r>   -13.9555     0.0000     8.0000 </r>
       <r>   -13.8613     0.0000     8.0000 </r>
       <r>   -13.7671     0.0000     8.0000 </r>
       <r>   -13.6730     0.0000     8.0000 </r>
       <r>   -13.5788     0.0000     8.0000 </r>
       <r>   -13.4846     0.0000     8.0000 </r>
       <r>   -13.3904     0.0000     8.0000 </r>
       <r>   -13.2962     0.0000     8.0000 </r>
       <r>   -13.2021     0.0000     8.0000 </r>
       <r>   -13.1079     0.0000     8.0000 </r>
       <r>   -13.0137     0.0000     8.0000 </r>
       <r>   -12.9195     0.0000     8.0000 </r>
       <r>   -12.8253     0.0000     8.0000 </r>
       <r>   -12.7311     0.0000     8.0000 </r>
       <r>   -12.6370     0.0000     8.0000 </r>
       <r>   -12.5428     0.0000     8.0000 </r>
       <r>   -12.4486     0.0000     8.0000 </r>
       <r>   -12.3544     0.0000     8.0000 </r>
       <r>   -12.2602     0.0000     8.0000 </r>
       <r>   -12.1661     0.0000     8.0000 </r>
       <r>   -12.0719     0.0000     8.0000 </r>
       <r>   -11.9777     0.0000     8.0000 </r>
       <r>   -11.8835     0.0000     8.0000 </r>
       <r>   -11.7893     0.0000     8.0000 </r>
       <r>   -11.6952     0.0000     8.0000 </r>
       <r>   -11.6010     0.0000     8.0000 </r>
       <r>   -11.5068     0.0000     8.0000 </r>
       <r>   -11.4126     0.0000     8.0000 </r>
       <r>   -11.3184     0.0000     8.0000 </r>
       <r>   -11.2242     0.0000     8.0000 </r>
       <r>   -11.1301     0.0000     8.0000 </r>
       <r>   -11.0359     0.0000     8.0000 </r>
       <r>   -10.9417     0.0000     8.0000 </r>
       <r>   -10.8475     0.0000     8.0000 </r>
       <r>   -10.7533     0.0000     8.0000 </r>
       <r>   -10.6592     0.0000     8.0000 </r>
       <r>   -10.5650     0.0000     8.0000 </r>
       <r>   -10.4708     0.0000     8.0000 </r>
       <r>   -10.3766     0.0000     8.0000 </r>
       <r>   -10.2824     0.0000     8.0000 </r>
       <r>   -10.1883     0.0000     8.0000 </r>
       <r>   -10.0941     0.0000     8.0000 </r>
       <r>    -9.9999     0.0000     8.0000 </r>
       <r>    -9.9057     0.0000     8.0000 </r>
       <r>    -9.8115     0.0000     8.0000 </r>
       <r>    -9.7173     0.0000     8.0000 </r>
       <r>    -9.6232     0.0000     8.0000 </r>
       <r>    -9.5290     0.0223     8.0021 </r>
       <r>    -9.4348     0.9258     8.0893 </r>
       <r>    -9.3406     3.4234     8.4117 </r>
       <r>    -9.2464     4.8472     8.8682 </r>
       <r>    -9.1523     0.2951     8.8960 </r>
       <r>    -9.0581     5.9772     9.4590 </r>
       <r>    -8.9639     6.3272    10.0549 </r>
       <r>    -8.8697     6.3760    10.6554 </r>
       <r>    -8.7755     6.0656    11.2266 </r>
       <r>    -8.6814     0.5917    11.2824 </r>
       <r>    -8.5872    15.9999    12.7893 </r>
       <r>    -8.4930    10.9367    13.8193 </r>
       <r>    -8.3988     6.2002    14.4032 </r>
       <r>    -8.3046     6.0864    14.9765 </r>
       <r>    -8.2104     0.8531    15.0568 </r>
       <r>    -8.1163    13.2336    16.3032 </r>
       <r>    -8.0221    14.4890    17.6677 </r>
       <r>    -7.9279    13.4715    18.9365 </r>
       <r>    -7.8337    19.3255    20.7566 </r>
       <r>    -7.7395     6.8302    21.3999 </r>
       <r>    -7.6454     5.9093    21.9564 </r>
       <r>    -7.5512    13.2351    23.2029 </r>
       <r>    -7.4570    15.9130    24.7016 </r>
       <r>    -7.3628    16.2092    26.2282 </r>
       <r>    -7.2686     9.0758    27.0830 </r>
       <r>    -7.1745    20.4690    29.0108 </r>
       <r>    -7.0803    16.4865    30.5635 </r>
       <r>    -6.9861    12.7829    31.7674 </r>
       <r>    -6.8919    17.2797    33.3949 </r>
       <r>    -6.7977    31.5620    36.3674 </r>
       <r>    -6.7035    15.2691    37.8055 </r>
       <r>    -6.6094    18.0224    39.5028 </r>
       <r>    -6.5152    13.7341    40.7963 </r>
       <r>    -6.4210    24.4935    43.1032 </r>
       <r>    -6.3268    23.4399    45.3108 </r>
       <r>    -6.2326    18.9777    47.0981 </r>
       <r>    -6.1385    46.5633    51.4835 </r>
       <r>    -6.0443    20.9192    53.4537 </r>
       <r>    -5.9501    45.8927    57.7759 </r>
       <r>    -5.8559    20.9755    59.7514 </r>
       <r>    -5.7617    20.5943    61.6910 </r>
       <r>    -5.6676    59.2128    67.2677 </r>
       <r>    -5.5734    86.6969    75.4330 </r>
       <r>    -5.4792    74.0627    82.4083 </r>
       <r>    -5.3850    60.4934    88.1056 </r>
       <r>    -5.2908    96.1561    97.1617 </r>
       <r>    -5.1966    89.5607   105.5967 </r>
       <r>    -5.1025   108.8079   115.8443 </r>
       <r>    -5.0083   119.7693   127.1244 </r>
       <r>    -4.9141   145.6201   140.8390 </r>
       <r>    -4.8199   127.7623   152.8719 </r>
       <r>    -4.7257   126.3688   164.7734 </r>
       <r>    -4.6316   167.9217   180.5885 </r>
       <r>    -4.5374   204.7837   199.8753 </r>
       <r>    -4.4432   242.4305   222.7077 </r>
       <r>    -4.3490   284.8230   249.5327 </r>
       <r>    -4.2548   252.5416   273.3174 </r>
       <r>    -4.1607   220.0716   294.0440 </r>
       <r>    -4.0665   205.8597   313.4321 </r>
       <r>    -3.9723   221.5464   334.2976 </r>
       <r>    -3.8781   271.9755   359.9126 </r>
       <r>    -3.7839   279.0078   386.1899 </r>
       <r>    -3.6897   323.0886   416.6188 </r>
       <r>    -3.5956   317.8073   446.5503 </r>
       <r>    -3.5014   325.1404   477.1724 </r>
       <r>    -3.4072   394.5298   514.3297 </r>
       <r>    -3.3130   478.5904   559.4040 </r>
       <r>    -3.2188   505.6386   607.0256 </r>
       <r>    -3.1247   437.6275   648.2419 </r>
       <r>    -3.0305   451.4473   690.7598 </r>
       <r>    -2.9363   324.7596   721.3461 </r>
       <r>    -2.8421   363.2654   755.5589 </r>
       <r>    -2.7479   346.9826   788.2381 </r>
       <r>    -2.6538   411.6842   827.0111 </r>
       <r>    -2.5596   407.9775   865.4349 </r>
       <r>    -2.4654   389.8485   902.1513 </r>
       <r>    -2.3712   429.6082   942.6124 </r>
       <r>    -2.2770   419.0690   982.0808 </r>
       <r>    -2.1828   442.1156  1023.7198 </r>
       <r>    -2.0887   531.8710  1073.8121 </r>
       <r>    -1.9945   616.4623  1131.8713 </r>
       <r>    -1.9003   429.6090  1172.3324 </r>
       <r>    -1.8061   159.2333  1187.3292 </r>
       <r>    -1.7119    68.5259  1193.7830 </r>
       <r>    -1.6178    52.5648  1198.7337 </r>
       <r>    -1.5236    58.3921  1204.2331 </r>
       <r>    -1.4294    59.9551  1209.8797 </r>
       <r>    -1.3352    89.1547  1218.2764 </r>
       <r>    -1.2410    59.3409  1223.8652 </r>
       <r>    -1.1469    35.3881  1227.1981 </r>
       <r>    -1.0527    11.6691  1228.2972 </r>
       <r>    -0.9585    48.1832  1232.8351 </r>
       <r>    -0.8643    37.9673  1236.4109 </r>
       <r>    -0.7701    43.7125  1240.5278 </r>
       <r>    -0.6759    47.7942  1245.0291 </r>
       <r>    -0.5818    57.3199  1250.4276 </r>
       <r>    -0.4876    20.1468  1252.3250 </r>
       <r>    -0.3934    35.3142  1255.6510 </r>
       <r>    -0.2992    37.3784  1259.1713 </r>
       <r>    -0.2050    41.2677  1263.0580 </r>
       <r>    -0.1109    23.4620  1265.2676 </r>
       <r>    -0.0167    35.2964  1268.5919 </r>
       <r>     0.0775    48.8901  1273.1964 </r>
       <r>     0.1717    42.0310  1277.1550 </r>
       <r>     0.2659    12.8923  1278.3692 </r>
       <r>     0.3600    25.6942  1280.7891 </r>
       <r>     0.4542    43.5105  1284.8870 </r>
       <r>     0.5484    33.9045  1288.0801 </r>
       <r>     0.6426    28.6373  1290.7772 </r>
       <r>     0.7368    54.5762  1295.9173 </r>
       <r>     0.8310    34.9758  1299.2113 </r>
       <r>     0.9251    31.3514  1302.1641 </r>
       <r>     1.0193    29.1839  1304.9126 </r>
       <r>     1.1135    29.2250  1307.6651 </r>
       <r>     1.2077    47.1118  1312.1021 </r>
       <r>     1.3019    19.1451  1313.9052 </r>
       <r>     1.3960    20.4957  1315.8356 </r>
       <r>     1.4902    37.2068  1319.3397 </r>
       <r>     1.5844    32.3296  1322.3846 </r>
       <r>     1.6786    27.5956  1324.9836 </r>
       <r>     1.7728    20.5185  1326.9160 </r>
       <r>     1.8669    41.7230  1330.8455 </r>
       <r>     1.9611    37.0333  1334.3334 </r>
       <r>     2.0553    39.2542  1338.0304 </r>
       <r>     2.1495    24.7420  1340.3606 </r>
       <r>     2.2437    37.8536  1343.9257 </r>
       <r>     2.3379    24.4980  1346.2330 </r>
       <r>     2.4320    22.6624  1348.3674 </r>
       <r>     2.5262    14.4214  1349.7256 </r>
       <r>     2.6204    11.9876  1350.8546 </r>
       <r>     2.7146    19.6895  1352.7090 </r>
       <r>     2.8088    32.6909  1355.7878 </r>
       <r>     2.9029    28.1491  1358.4390 </r>
       <r>     2.9971    26.9309  1360.9753 </r>
       <r>     3.0913    19.4249  1362.8048 </r>
       <r>     3.1855    23.5548  1365.0232 </r>
       <r>     3.2797    20.8720  1366.9890 </r>
       <r>     3.3738     8.9359  1367.8306 </r>
       <r>     3.4680    30.7182  1370.7237 </r>
       <r>     3.5622    31.8084  1373.7194 </r>
       <r>     3.6564    27.8751  1376.3447 </r>
       <r>     3.7506     6.9267  1376.9971 </r>
       <r>     3.8448    22.1008  1379.0786 </r>
       <r>     3.9389    44.4100  1383.2611 </r>
       <r>     4.0331    32.3686  1386.3097 </r>
       <r>     4.1273    42.3807  1390.3011 </r>
       <r>     4.2215    50.6149  1395.0681 </r>
       <r>     4.3157    35.3088  1398.3935 </r>
       <r>     4.4098    18.2883  1400.1159 </r>
       <r>     4.5040    23.1720  1402.2983 </r>
       <r>     4.5982    31.6977  1405.2836 </r>
       <r>     4.6924    37.9694  1408.8597 </r>
       <r>     4.7866    41.1692  1412.7370 </r>
       <r>     4.8807    47.6201  1417.2219 </r>
       <r>     4.9749    37.9507  1420.7962 </r>
       <r>     5.0691    40.1490  1424.5775 </r>
       <r>     5.1633    37.2909  1428.0896 </r>
       <r>     5.2575    28.6012  1430.7833 </r>
       <r>     5.3517    59.4914  1436.3862 </r>
       <r>     5.4458    37.3957  1439.9082 </r>
       <r>     5.5400    54.1438  1445.0075 </r>
       <r>     5.6342    33.9057  1448.2008 </r>
       <r>     5.7284    33.9650  1451.3997 </r>
       <r>     5.8226    33.9619  1454.5983 </r>
       <r>     5.9167    33.1930  1457.7244 </r>
       <r>     6.0109    61.6487  1463.5306 </r>
       <r>     6.1051    54.2695  1468.6417 </r>
       <r>     6.1993    44.4372  1472.8269 </r>
       <r>     6.2935    40.4031  1476.6321 </r>
       <r>     6.3876    36.2533  1480.0465 </r>
       <r>     6.4818    51.2808  1484.8762 </r>
       <r>     6.5760    43.0997  1488.9354 </r>
       <r>     6.6702    35.0802  1492.2393 </r>
       <r>     6.7644    36.9545  1495.7197 </r>
       <r>     6.8586    59.6602  1501.3386 </r>
       <r>     6.9527    48.9444  1505.9482 </r>
       <r>     7.0469    36.6375  1509.3988 </r>
       <r>     7.1411    26.7112  1511.9145 </r>
       <r>     7.2353     0.9080  1512.0000 </r>
       <r>     7.3295     0.0001  1512.0000 </r>
       <r>     7.4236     0.0000  1512.0000 </r>
       <r>     7.5178     0.0000  1512.0000 </r>
       <r>     7.6120     0.0000  1512.0000 </r>
       <r>     7.7062     0.0000  1512.0000 </r>
       <r>     7.8004     0.0000  1512.0000 </r>
       <r>     7.8945     0.0000  1512.0000 </r>
       <r>     7.9887     0.0000  1512.0000 </r>
       <r>     8.0829     0.0000  1512.0000 </r>
       <r>     8.1771     0.0000  1512.0000 </r>
       <r>     8.2713     0.0000  1512.0000 </r>
       <r>     8.3655     0.0000  1512.0000 </r>
      </set>
     </set>
    </array>
   </total>
  </dos>
 </calculation>
 <structure name="finalpos" >
  <crystal>
   <varray name="basis" >
    <v>      10.28518105       0.00000000       0.00000000 </v>
    <v>       5.14259052       8.90722807       0.00000000 </v>
    <v>       0.00000000       0.00000000      27.79016876 </v>
   </varray>
   <i name="volume">   2545.92553775 </i>
   <varray name="rec_basis" >
    <v>       0.09722726      -0.05613419       0.00000000 </v>
    <v>       0.00000000       0.11226837       0.00000000 </v>
    <v>       0.00000000       0.00000000       0.03598395 </v>
   </varray>
  </crystal>
  <varray name="positions" >
   <v>       0.00000000       0.00000000       0.22663990 </v>
   <v>       0.00000000       0.50000000       0.22663990 </v>
   <v>       0.50000000       0.00000000       0.22663990 </v>
   <v>       0.50000000       0.50000000       0.22663990 </v>
   <v>       0.00000000       0.25000000       0.22663990 </v>
   <v>       0.00000000       0.75000000       0.22663990 </v>
   <v>       0.50000000       0.25000000       0.22663990 </v>
   <v>       0.50000000       0.75000000       0.22663990 </v>
   <v>       0.25000000       0.00000000       0.22663990 </v>
   <v>       0.25000000       0.50000000       0.22663990 </v>
   <v>       0.75000000       0.00000000       0.22663990 </v>
   <v>       0.75000000       0.50000000       0.22663990 </v>
   <v>       0.25000000       0.25000000       0.22663990 </v>
   <v>       0.25000000       0.75000000       0.22663990 </v>
   <v>       0.75000000       0.25000000       0.22663990 </v>
   <v>       0.75000000       0.75000000       0.22663990 </v>
   <v>       0.16666666       0.16666666       0.30218653 </v>
   <v>       0.16666666       0.66666666       0.30218653 </v>
   <v>       0.66666666       0.16666666       0.30218653 </v>
   <v>       0.66666666       0.66666666       0.30218653 </v>
   <v>       0.16666666       0.41666666       0.30218653 </v>
   <v>       0.16666666       0.91666666       0.30218653 </v>
   <v>       0.66666666       0.41666666       0.30218653 </v>
   <v>       0.66666666       0.91666666       0.30218653 </v>
   <v>       0.41666666       0.16666666       0.30218653 </v>
   <v>       0.41666666       0.66666666       0.30218653 </v>
   <v>       0.91666666       0.16666666       0.30218653 </v>
   <v>       0.91666666       0.66666666       0.30218653 </v>
   <v>       0.41666666       0.41666666       0.30218653 </v>
   <v>       0.41666666       0.91666666       0.30218653 </v>
   <v>       0.91666666       0.41666666       0.30218653 </v>
   <v>       0.91666666       0.91666666       0.30218653 </v>
   <v>       0.08333333       0.08333333       0.37716320 </v>
   <v>       0.08333333       0.58333333       0.37716320 </v>
   <v>       0.58333333       0.08333333       0.37716320 </v>
   <v>       0.58333333       0.58333333       0.37716320 </v>
   <v>       0.08351614       0.33324190       0.37729758 </v>
   <v>       0.08351614       0.83324190       0.37729758 </v>
   <v>       0.58351614       0.33324190       0.37729758 </v>
   <v>       0.58351614       0.83324190       0.37729758 </v>
   <v>       0.33324190       0.08351614       0.37729758 </v>
   <v>       0.33324190       0.58351614       0.37729758 </v>
   <v>       0.83324190       0.08351614       0.37729758 </v>
   <v>       0.83324190       0.58351614       0.37729758 </v>
   <v>       0.33324190       0.33324190       0.37729758 </v>
   <v>       0.33324190       0.83324190       0.37729758 </v>
   <v>       0.83324190       0.33324190       0.37729758 </v>
   <v>       0.83324190       0.83324190       0.37729758 </v>
   <v>       0.00012997       0.00012997       0.45242342 </v>
   <v>       0.00012997       0.50012997       0.45242342 </v>
   <v>       0.50012997       0.00012997       0.45242342 </v>
   <v>       0.50012997       0.50012997       0.45242342 </v>
   <v>       0.00012997       0.24974005       0.45242342 </v>
   <v>       0.00012997       0.74974005       0.45242342 </v>
   <v>       0.50012997       0.24974005       0.45242342 </v>
   <v>       0.50012997       0.74974005       0.45242342 </v>
   <v>       0.24974005       0.00012997       0.45242342 </v>
   <v>       0.24974005       0.50012997       0.45242342 </v>
   <v>       0.74974005       0.00012997       0.45242342 </v>
   <v>       0.74974005       0.50012997       0.45242342 </v>
   <v>       0.25000000       0.25000000       0.45288750 </v>
   <v>       0.25000000       0.75000000       0.45288750 </v>
   <v>       0.75000000       0.25000000       0.45288750 </v>
   <v>       0.75000000       0.75000000       0.45288750 </v>
   <v>       0.16660598       0.16660598       0.52813907 </v>
   <v>       0.16660598       0.66660598       0.52813907 </v>
   <v>       0.66660598       0.16660598       0.52813907 </v>
   <v>       0.66660598       0.66660598       0.52813907 </v>
   <v>       0.16660598       0.41678801       0.52813907 </v>
   <v>       0.16660598       0.91678801       0.52813907 </v>
   <v>       0.66660598       0.41678801       0.52813907 </v>
   <v>       0.66660598       0.91678801       0.52813907 </v>
   <v>       0.41678801       0.16660598       0.52813907 </v>
   <v>       0.41678801       0.66660598       0.52813907 </v>
   <v>       0.91678801       0.16660598       0.52813907 </v>
   <v>       0.91678801       0.66660598       0.52813907 </v>
   <v>       0.41666666       0.41666666       0.52741939 </v>
   <v>       0.41666666       0.91666666       0.52741939 </v>
   <v>       0.91666666       0.41666666       0.52741939 </v>
   <v>       0.91666666       0.91666666       0.52741939 </v>
   <v>       0.08333333       0.08333333       0.60253339 </v>
   <v>       0.08333333       0.58333333       0.60253339 </v>
   <v>       0.58333333       0.08333333       0.60253339 </v>
   <v>       0.58333333       0.58333333       0.60253339 </v>
   <v>       0.08130935       0.33434529       0.60320464 </v>
   <v>       0.08130935       0.83434529       0.60320464 </v>
   <v>       0.58130935       0.33434529       0.60320464 </v>
   <v>       0.58130935       0.83434529       0.60320464 </v>
   <v>       0.33434529       0.08130935       0.60320464 </v>
   <v>       0.33434529       0.58130935       0.60320464 </v>
   <v>       0.83434529       0.08130935       0.60320464 </v>
   <v>       0.83434529       0.58130935       0.60320464 </v>
   <v>       0.33434529       0.33434529       0.60320464 </v>
   <v>       0.33434529       0.83434529       0.60320464 </v>
   <v>       0.83434529       0.33434529       0.60320464 </v>
   <v>       0.83434529       0.83434529       0.60320464 </v>
   <v>       0.49794034       0.49555877       0.68006359 </v>
   <v>       0.49714648       0.99714648       0.68057248 </v>
   <v>       0.99714648       0.49714648       0.68057248 </v>
   <v>       0.99714648       0.99714648       0.68057248 </v>
   <v>       0.49714648       0.25570704       0.68057248 </v>
   <v>       0.49714648       0.75570704       0.68057248 </v>
   <v>       0.99714648       0.25570704       0.68057248 </v>
   <v>       0.99714648       0.75570704       0.68057248 </v>
   <v>       0.25570704       0.49714648       0.68057248 </v>
   <v>       0.25570704       0.99714648       0.68057248 </v>
   <v>       0.75570704       0.49714648       0.68057248 </v>
   <v>       0.75570704       0.99714648       0.68057248 </v>
   <v>       0.25000000       0.25000000       0.67480871 </v>
   <v>       0.25000000       0.75000000       0.67480871 </v>
   <v>       0.75000000       0.25000000       0.67480871 </v>
   <v>       0.75000000       0.75000000       0.67480871 </v>
   <v>       0.08333333       0.08333333       0.72043888 </v>
   <v>       0.08333333       0.58333333       0.72043888 </v>
   <v>       0.58333333       0.08333333       0.72043888 </v>
   <v>       0.58333333       0.58333333       0.72043888 </v>
  </varray>
 </structure>
</modeling>
