<?xml version="1.0" encoding="ISO-8859-1"?>
<modeling>
 <generator>
  <i name="program" type="string">vasp </i>
  <i name="version" type="string">5.4.4.18Apr17-6-g9f103f2a35  </i>
  <i name="subversion" type="string">(build Feb 09 2021 16:27:36) complex            parallel </i>
  <i name="platform" type="string">IFC15_impi </i>
  <i name="date" type="string">2021 04 29 </i>
  <i name="time" type="string">03:20:15 </i>
 </generator>
 <incar>
  <i type="int" name="ISTART">     0</i>
  <i type="string" name="PREC">a</i>
  <i type="logical" name="ADDGRID"> T  </i>
  <i type="int" name="NELM">   300</i>
  <i type="int" name="NELMIN">     5</i>
  <i type="int" name="IBRION">    -1</i>
  <i name="EDIFF">      0.00000100</i>
  <i name="ENCUT">    500.00000000</i>
  <i type="logical" name="LREAL"> F  </i>
  <i type="int" name="ISMEAR">     0</i>
  <i name="SIGMA">      0.05000000</i>
  <i type="logical" name="LWAVE"> F  </i>
  <i type="logical" name="LCHARG"> F  </i>
  <v type="int" name="KPOINT_BSE">    -1     0     0     0</v>
  <i type="int" name="NELM">   300</i>
 </incar>
 <structure name="primitive_cell" >
  <crystal>
   <varray name="basis" >
    <v>      10.28518105       0.00000000       0.00000000 </v>
    <v>       5.14259052       8.90722807       0.00000000 </v>
    <v>       0.00000000       0.00000000      27.79016876 </v>
   </varray>
   <i name="volume">   2545.92553775 </i>
   <varray name="rec_basis" >
    <v>       0.09722726      -0.05613419       0.00000000 </v>
    <v>       0.00000000       0.11226837       0.00000000 </v>
    <v>       0.00000000       0.00000000       0.03598395 </v>
   </varray>
  </crystal>
  <varray name="positions" >
   <v>       0.00000000       0.00000000       0.22663990 </v>
   <v>       0.16666666      -0.08333334       0.30218653 </v>
   <v>      -0.08333334       0.16666666       0.30218653 </v>
   <v>       0.25000000       0.00000000       0.22663990 </v>
   <v>       0.00000000      -0.25000000       0.22663990 </v>
   <v>       0.25000000      -0.25000000       0.22663990 </v>
   <v>      -0.25000000       0.25000000       0.22663990 </v>
   <v>       0.00000000       0.25000000       0.22663990 </v>
   <v>      -0.25000000       0.00000000       0.22663990 </v>
   <v>      -0.08333334      -0.08333334       0.30218653 </v>
   <v>       0.16666666       0.16666666       0.30218653 </v>
   <v>       0.16666666      -0.33333334       0.30218653 </v>
   <v>      -0.33333334       0.16666666       0.30218653 </v>
   <v>       0.08333333       0.08333333       0.37716320 </v>
   <v>       0.08351614      -0.16675810       0.37729758 </v>
   <v>      -0.16675810       0.08351614       0.37729758 </v>
   <v>       0.41666666      -0.08333334       0.30218653 </v>
   <v>      -0.08333334       0.41666666       0.30218653 </v>
   <v>      -0.33333334       0.41666666       0.30218653 </v>
   <v>       0.41666666      -0.33333334       0.30218653 </v>
   <v>      -0.50000000       0.25000000       0.22663990 </v>
   <v>       0.25000000       0.25000000       0.22663990 </v>
   <v>       0.25000000      -0.50000000       0.22663990 </v>
   <v>      -0.25000000      -0.50000000       0.22663990 </v>
   <v>      -0.25000000      -0.25000000       0.22663990 </v>
   <v>      -0.50000000      -0.25000000       0.22663990 </v>
   <v>      -0.08333334      -0.33333334       0.30218653 </v>
   <v>      -0.33333334      -0.08333334       0.30218653 </v>
   <v>       0.33324190      -0.16675810       0.37729758 </v>
   <v>      -0.16675810       0.33324190       0.37729758 </v>
   <v>      -0.16675810      -0.16675810       0.37729758 </v>
   <v>       0.00000000      -0.50000000       0.22663990 </v>
   <v>      -0.50000000      -0.50000000       0.22663990 </v>
   <v>      -0.50000000       0.00000000       0.22663990 </v>
   <v>      -0.41666667       0.08333333       0.37716320 </v>
   <v>       0.08333333      -0.41666667       0.37716320 </v>
   <v>       0.33324190      -0.41648386       0.37729758 </v>
   <v>      -0.41648386       0.33324190       0.37729758 </v>
   <v>       0.33324190       0.08351614       0.37729758 </v>
   <v>       0.08351614       0.33324190       0.37729758 </v>
   <v>       0.16666666       0.41666666       0.30218653 </v>
   <v>       0.41666666       0.16666666       0.30218653 </v>
   <v>       0.41666666       0.41666666       0.30218653 </v>
   <v>       0.00012997       0.00012997       0.45242342 </v>
   <v>      -0.33333334      -0.33333334       0.30218653 </v>
   <v>       0.00012997       0.24974005       0.45242342 </v>
   <v>       0.24974005       0.00012997       0.45242342 </v>
   <v>      -0.25025995       0.00012997       0.45242342 </v>
   <v>       0.00012997      -0.25025995       0.45242342 </v>
   <v>       0.25000000      -0.25000000       0.45288750 </v>
   <v>      -0.25000000       0.25000000       0.45288750 </v>
   <v>      -0.41666667      -0.41666667       0.37716320 </v>
   <v>      -0.41648386      -0.16675810       0.37729758 </v>
   <v>      -0.16675810      -0.41648386       0.37729758 </v>
   <v>       0.33324190       0.33324190       0.37729758 </v>
   <v>       0.24974005      -0.49987003       0.45242342 </v>
   <v>      -0.49987003       0.24974005       0.45242342 </v>
   <v>      -0.49987003      -0.25025995       0.45242342 </v>
   <v>      -0.25025995      -0.49987003       0.45242342 </v>
   <v>       0.25000000       0.25000000       0.45288750 </v>
   <v>      -0.25000000      -0.25000000       0.45288750 </v>
   <v>       0.00012997      -0.49987003       0.45242342 </v>
   <v>      -0.49987003       0.00012997       0.45242342 </v>
   <v>      -0.49987003      -0.49987003       0.45242342 </v>
   <v>      -0.08333334      -0.08333334      -0.47258061 </v>
   <v>      -0.08321199       0.16660598      -0.47186093 </v>
   <v>       0.16660598      -0.08321199      -0.47186093 </v>
   <v>      -0.33339402       0.16660598      -0.47186093 </v>
   <v>       0.16660598      -0.33339402      -0.47186093 </v>
   <v>       0.16581213       0.16819370      -0.47135205 </v>
   <v>       0.41666666      -0.08333334      -0.47258061 </v>
   <v>      -0.08333334       0.41666666      -0.47258061 </v>
   <v>      -0.33339402      -0.08321199      -0.47186093 </v>
   <v>      -0.08321199      -0.33339402      -0.47186093 </v>
   <v>      -0.33339402       0.41678801      -0.47186093 </v>
   <v>       0.41678801      -0.33339402      -0.47186093 </v>
   <v>       0.41666666       0.41666666      -0.47258061 </v>
   <v>       0.16660598       0.41678801      -0.47186093 </v>
   <v>       0.41678801       0.16660598      -0.47186093 </v>
   <v>      -0.33339402      -0.33339402      -0.47186093 </v>
   <v>       0.08333333       0.08333333      -0.39746661 </v>
   <v>      -0.16565471       0.08130935      -0.39679536 </v>
   <v>       0.08130935      -0.16565471      -0.39679536 </v>
   <v>      -0.16565471      -0.16565471      -0.39679536 </v>
   <v>      -0.16565471       0.33434529      -0.39679536 </v>
   <v>       0.33434529      -0.16565471      -0.39679536 </v>
   <v>      -0.41666667       0.08333333      -0.39746661 </v>
   <v>       0.08333333      -0.41666667      -0.39746661 </v>
   <v>       0.08130935       0.33434529      -0.39679536 </v>
   <v>       0.33434529       0.08130935      -0.39679536 </v>
   <v>       0.33434529      -0.41869065      -0.39679536 </v>
   <v>      -0.41869065       0.33434529      -0.39679536 </v>
   <v>      -0.41666667      -0.41666667      -0.39746661 </v>
   <v>      -0.41869065      -0.16565471      -0.39679536 </v>
   <v>      -0.16565471      -0.41869065      -0.39679536 </v>
   <v>       0.33434529       0.33434529      -0.39679536 </v>
   <v>      -0.00285352      -0.00285352      -0.31942752 </v>
   <v>       0.25000000      -0.25000000      -0.32519129 </v>
   <v>      -0.25000000       0.25000000      -0.32519129 </v>
   <v>      -0.24429296      -0.00285352      -0.31942752 </v>
   <v>      -0.00285352      -0.24429296      -0.31942752 </v>
   <v>      -0.00285352       0.25570704      -0.31942752 </v>
   <v>       0.25570704      -0.00285352      -0.31942752 </v>
   <v>       0.25000000       0.25000000      -0.32519129 </v>
   <v>      -0.25000000      -0.25000000      -0.32519129 </v>
   <v>       0.49714648      -0.24429296      -0.31942752 </v>
   <v>      -0.24429296       0.49714648      -0.31942752 </v>
   <v>       0.25570704       0.49714648      -0.31942752 </v>
   <v>       0.49714648       0.25570704      -0.31942752 </v>
   <v>      -0.00285352       0.49714648      -0.31942752 </v>
   <v>       0.49714648      -0.00285352      -0.31942752 </v>
   <v>       0.49714648       0.49714648      -0.31942752 </v>
   <v>       0.08333333       0.08333333      -0.27956112 </v>
   <v>      -0.41666667       0.08333333      -0.27956112 </v>
   <v>       0.08333333      -0.41666667      -0.27956112 </v>
   <v>      -0.41666667      -0.41666667      -0.27956112 </v>
  </varray>
 </structure>
 <varray name="primitive_index" >
  <v type="int" >        1 </v>
  <v type="int" >       22 </v>
  <v type="int" >       27 </v>
  <v type="int" >        9 </v>
  <v type="int" >        6 </v>
  <v type="int" >       14 </v>
  <v type="int" >       15 </v>
  <v type="int" >        5 </v>
  <v type="int" >       11 </v>
  <v type="int" >       32 </v>
  <v type="int" >       17 </v>
  <v type="int" >       18 </v>
  <v type="int" >       19 </v>
  <v type="int" >       33 </v>
  <v type="int" >       38 </v>
  <v type="int" >       43 </v>
  <v type="int" >       30 </v>
  <v type="int" >       31 </v>
  <v type="int" >       23 </v>
  <v type="int" >       26 </v>
  <v type="int" >        7 </v>
  <v type="int" >       13 </v>
  <v type="int" >       10 </v>
  <v type="int" >       12 </v>
  <v type="int" >       16 </v>
  <v type="int" >        8 </v>
  <v type="int" >       28 </v>
  <v type="int" >       24 </v>
  <v type="int" >       46 </v>
  <v type="int" >       47 </v>
  <v type="int" >       48 </v>
  <v type="int" >        2 </v>
  <v type="int" >        4 </v>
  <v type="int" >        3 </v>
  <v type="int" >       35 </v>
  <v type="int" >       34 </v>
  <v type="int" >       42 </v>
  <v type="int" >       39 </v>
  <v type="int" >       41 </v>
  <v type="int" >       37 </v>
  <v type="int" >       21 </v>
  <v type="int" >       25 </v>
  <v type="int" >       29 </v>
  <v type="int" >       49 </v>
  <v type="int" >       20 </v>
  <v type="int" >       53 </v>
  <v type="int" >       57 </v>
  <v type="int" >       59 </v>
  <v type="int" >       54 </v>
  <v type="int" >       62 </v>
  <v type="int" >       63 </v>
  <v type="int" >       36 </v>
  <v type="int" >       40 </v>
  <v type="int" >       44 </v>
  <v type="int" >       45 </v>
  <v type="int" >       58 </v>
  <v type="int" >       55 </v>
  <v type="int" >       56 </v>
  <v type="int" >       60 </v>
  <v type="int" >       61 </v>
  <v type="int" >       64 </v>
  <v type="int" >       50 </v>
  <v type="int" >       51 </v>
  <v type="int" >       52 </v>
  <v type="int" >       80 </v>
  <v type="int" >       75 </v>
  <v type="int" >       70 </v>
  <v type="int" >       67 </v>
  <v type="int" >       66 </v>
  <v type="int" >       65 </v>
  <v type="int" >       78 </v>
  <v type="int" >       79 </v>
  <v type="int" >       72 </v>
  <v type="int" >       76 </v>
  <v type="int" >       71 </v>
  <v type="int" >       74 </v>
  <v type="int" >       77 </v>
  <v type="int" >       69 </v>
  <v type="int" >       73 </v>
  <v type="int" >       68 </v>
  <v type="int" >       81 </v>
  <v type="int" >       91 </v>
  <v type="int" >       86 </v>
  <v type="int" >       96 </v>
  <v type="int" >       95 </v>
  <v type="int" >       94 </v>
  <v type="int" >       83 </v>
  <v type="int" >       82 </v>
  <v type="int" >       85 </v>
  <v type="int" >       89 </v>
  <v type="int" >       90 </v>
  <v type="int" >       87 </v>
  <v type="int" >       84 </v>
  <v type="int" >       88 </v>
  <v type="int" >       92 </v>
  <v type="int" >       93 </v>
  <v type="int" >      100 </v>
  <v type="int" >      110 </v>
  <v type="int" >      111 </v>
  <v type="int" >      108 </v>
  <v type="int" >      104 </v>
  <v type="int" >      103 </v>
  <v type="int" >      106 </v>
  <v type="int" >      109 </v>
  <v type="int" >      112 </v>
  <v type="int" >      102 </v>
  <v type="int" >      107 </v>
  <v type="int" >      105 </v>
  <v type="int" >      101 </v>
  <v type="int" >       99 </v>
  <v type="int" >       98 </v>
  <v type="int" >       97 </v>
  <v type="int" >      113 </v>
  <v type="int" >      115 </v>
  <v type="int" >      114 </v>
  <v type="int" >      116 </v>
 </varray>
 <kpoints>
  <generation param="Gamma">
   <v type="int" name="divisions">       4        4        1 </v>
   <v name="usershift">      0.00000000       0.00000000       0.00000000 </v>
   <v name="genvec1">      0.25000000      -0.00000000       0.00000000 </v>
   <v name="genvec2">      0.00000000       0.25000000       0.00000000 </v>
   <v name="genvec3">      0.00000000       0.00000000       1.00000000 </v>
   <v name="shift">      0.00000000       0.00000000       0.00000000 </v>
  </generation>
  <varray name="kpointlist" >
   <v>       0.00000000       0.00000000       0.00000000 </v>
   <v>       0.25000000      -0.00000000       0.00000000 </v>
   <v>       0.50000000      -0.00000000       0.00000000 </v>
   <v>       0.00000000       0.25000000       0.00000000 </v>
   <v>       0.25000000       0.25000000       0.00000000 </v>
   <v>       0.50000000       0.25000000       0.00000000 </v>
   <v>      -0.25000000       0.25000000       0.00000000 </v>
   <v>       0.00000000       0.50000000       0.00000000 </v>
   <v>       0.25000000       0.50000000       0.00000000 </v>
   <v>       0.50000000       0.50000000       0.00000000 </v>
  </varray>
  <varray name="weights" >
   <v>       0.06250000 </v>
   <v>       0.12500000 </v>
   <v>       0.06250000 </v>
   <v>       0.12500000 </v>
   <v>       0.12500000 </v>
   <v>       0.12500000 </v>
   <v>       0.12500000 </v>
   <v>       0.06250000 </v>
   <v>       0.12500000 </v>
   <v>       0.06250000 </v>
  </varray>
 </kpoints>
 <parameters>
  <separator name="general" >
   <i type="string" name="SYSTEM">unknown system</i>
   <i type="logical" name="LCOMPAT"> F  </i>
  </separator>
  <separator name="electronic" >
   <i type="string" name="PREC">a</i>
   <i name="ENMAX">    500.00000000</i>
   <i name="ENAUG">    605.39200000</i>
   <i name="EDIFF">      0.00000100</i>
   <i type="int" name="IALGO">    38</i>
   <i type="int" name="IWAVPR">    10</i>
   <i type="int" name="NBANDS">   756</i>
   <i name="NELECT">   1256.00000000</i>
   <i type="int" name="TURBO">     0</i>
   <i type="int" name="IRESTART">     0</i>
   <i type="int" name="NREBOOT">     0</i>
   <i type="int" name="NMIN">     0</i>
   <i name="EREF">      0.00000000</i>
   <separator name="electronic smearing" >
    <i type="int" name="ISMEAR">     0</i>
    <i name="SIGMA">      0.05000000</i>
    <i name="KSPACING">      0.50000000</i>
    <i type="logical" name="KGAMMA"> T  </i>
   </separator>
   <separator name="electronic projectors" >
    <i type="logical" name="LREAL"> F  </i>
    <v name="ROPT">      0.00000000      0.00000000</v>
    <i type="int" name="LMAXPAW">  -100</i>
    <i type="int" name="LMAXMIX">     2</i>
    <i type="logical" name="NLSPLINE"> F  </i>
   </separator>
   <separator name="electronic startup" >
    <i type="int" name="ISTART">     0</i>
    <i type="int" name="ICHARG">     2</i>
    <i type="int" name="INIWAV">     1</i>
   </separator>
   <separator name="electronic spin" >
    <i type="int" name="ISPIN">     1</i>
    <i type="logical" name="LNONCOLLINEAR"> F  </i>
    <v name="MAGMOM">      1.00000000      1.00000000      1.00000000      1.00000000      1.00000000      1.00000000      1.00000000      1.00000000      1.00000000      1.00000000      1.00000000      1.00000000      1.00000000      1.00000000      1.00000000      1.00000000      1.00000000      1.00000000      1.00000000      1.00000000
      1.00000000      1.00000000      1.00000000      1.00000000      1.00000000      1.00000000      1.00000000      1.00000000      1.00000000      1.00000000      1.00000000      1.00000000      1.00000000      1.00000000      1.00000000      1.00000000      1.00000000      1.00000000      1.00000000      1.00000000
      1.00000000      1.00000000      1.00000000      1.00000000      1.00000000      1.00000000      1.00000000      1.00000000      1.00000000      1.00000000      1.00000000      1.00000000      1.00000000      1.00000000      1.00000000      1.00000000      1.00000000      1.00000000      1.00000000      1.00000000
      1.00000000      1.00000000      1.00000000      1.00000000      1.00000000      1.00000000      1.00000000      1.00000000      1.00000000      1.00000000      1.00000000      1.00000000      1.00000000      1.00000000      1.00000000      1.00000000      1.00000000      1.00000000      1.00000000      1.00000000
      1.00000000      1.00000000      1.00000000      1.00000000      1.00000000      1.00000000      1.00000000      1.00000000      1.00000000      1.00000000      1.00000000      1.00000000      1.00000000      1.00000000      1.00000000      1.00000000      1.00000000      1.00000000      1.00000000      1.00000000
      1.00000000      1.00000000      1.00000000      1.00000000      1.00000000      1.00000000      1.00000000      1.00000000      1.00000000      1.00000000      1.00000000      1.00000000      1.00000000      1.00000000      1.00000000      1.00000000</v>
    <i name="NUPDOWN">     -1.00000000</i>
    <i type="logical" name="LSORBIT"> F  </i>
    <v name="SAXIS">      0.00000000      0.00000000      1.00000000</v>
    <i type="logical" name="LSPIRAL"> F  </i>
    <v name="QSPIRAL">      0.00000000      0.00000000      0.00000000</v>
    <i type="logical" name="LZEROZ"> F  </i>
   </separator>
   <separator name="electronic exchange-correlation" >
    <i type="logical" name="LASPH"> F  </i>
    <i type="logical" name="LMETAGGA"> F  </i>
   </separator>
   <separator name="electronic convergence" >
    <i type="int" name="NELM">   300</i>
    <i type="int" name="NELMDL">    -5</i>
    <i type="int" name="NELMIN">     5</i>
    <i name="ENINI">    500.00000000</i>
    <separator name="electronic convergence detail" >
     <i type="logical" name="LDIAG"> T  </i>
     <i type="logical" name="LSUBROT"> F  </i>
     <i name="WEIMIN">      0.00000000</i>
     <i name="EBREAK">      0.00000000</i>
     <i name="DEPER">      0.30000000</i>
     <i type="int" name="NRMM">     4</i>
     <i name="TIME">      0.40000000</i>
    </separator>
   </separator>
   <separator name="electronic mixer" >
    <i name="AMIX">      0.40000000</i>
    <i name="BMIX">      1.00000000</i>
    <i name="AMIN">      0.10000000</i>
    <i name="AMIX_MAG">      1.60000000</i>
    <i name="BMIX_MAG">      1.00000000</i>
    <separator name="electronic mixer details" >
     <i type="int" name="IMIX">     4</i>
     <i type="logical" name="MIXFIRST"> F  </i>
     <i type="int" name="MAXMIX">   -45</i>
     <i name="WC">    100.00000000</i>
     <i type="int" name="INIMIX">     1</i>
     <i type="int" name="MIXPRE">     1</i>
     <i type="int" name="MREMOVE">     5</i>
    </separator>
   </separator>
   <separator name="electronic dipolcorrection" >
    <i type="logical" name="LDIPOL"> F  </i>
    <i type="logical" name="LMONO"> F  </i>
    <i type="int" name="IDIPOL">     0</i>
    <i name="EPSILON">      1.00000000</i>
    <v name="DIPOL">   -100.00000000   -100.00000000   -100.00000000</v>
    <i name="EFIELD">      0.00000000</i>
   </separator>
  </separator>
  <separator name="grids" >
   <i type="int" name="NGX">    80</i>
   <i type="int" name="NGY">    80</i>
   <i type="int" name="NGZ">   210</i>
   <i type="int" name="NGXF">   160</i>
   <i type="int" name="NGYF">   160</i>
   <i type="int" name="NGZF">   420</i>
   <i type="logical" name="ADDGRID"> T  </i>
  </separator>
  <separator name="ionic" >
   <i type="int" name="NSW">     0</i>
   <i type="int" name="IBRION">    -1</i>
   <i type="int" name="MDALGO">     0</i>
   <i type="int" name="ISIF">     2</i>
   <i name="PSTRESS">      0.00000000</i>
   <i name="EDIFFG">      0.00001000</i>
   <i type="int" name="NFREE">     0</i>
   <i name="POTIM">      0.50000000</i>
   <i name="SMASS">     -3.00000000</i>
   <i name="SCALEE">      1.00000000</i>
  </separator>
  <separator name="ionic md" >
   <i name="TEBEG">      0.00010000</i>
   <i name="TEEND">      0.00010000</i>
   <i type="int" name="NBLOCK">     1</i>
   <i type="int" name="KBLOCK">     1</i>
   <i type="int" name="NPACO">   256</i>
   <i name="APACO">     16.00000000</i>
  </separator>
  <separator name="symmetry" >
   <i type="int" name="ISYM">     2</i>
   <i name="SYMPREC">      0.00001000</i>
  </separator>
  <separator name="dos" >
   <i type="int" name="LORBIT">     0</i>
   <v name="RWIGS">     -1.00000000     -1.00000000</v>
   <i type="int" name="NEDOS">   301</i>
   <i name="EMIN">     10.00000000</i>
   <i name="EMAX">    -10.00000000</i>
   <i name="EFERMI">      0.00000000</i>
  </separator>
  <separator name="writing" >
   <i type="int" name="NWRITE">     2</i>
   <i type="logical" name="LWAVE"> F  </i>
   <i type="logical" name="LDOWNSAMPLE"> F  </i>
   <i type="logical" name="LCHARG"> F  </i>
   <i type="logical" name="LPARD"> F  </i>
   <i type="logical" name="LVTOT"> F  </i>
   <i type="logical" name="LVHAR"> F  </i>
   <i type="logical" name="LELF"> F  </i>
   <i type="logical" name="LOPTICS"> F  </i>
   <v name="STM">      0.00000000      0.00000000      0.00000000      0.00000000      0.00000000      0.00000000      0.00000000</v>
  </separator>
  <separator name="performance" >
   <i type="int" name="NPAR">     4</i>
   <i type="int" name="NSIM">     4</i>
   <i type="int" name="NBLK">    -1</i>
   <i type="logical" name="LPLANE"> T  </i>
   <i type="logical" name="LSCALAPACK"> F  </i>
   <i type="logical" name="LSCAAWARE"> F  </i>
   <i type="logical" name="LSCALU"> F  </i>
   <i type="logical" name="LASYNC"> F  </i>
   <i type="logical" name="LORBITALREAL"> F  </i>
  </separator>
  <separator name="miscellaneous" >
   <i type="int" name="IDIOT">     3</i>
   <i type="int" name="ISPECIAL">     0</i>
   <i type="logical" name="LMUSIC"> F  </i>
   <v name="POMASS">     63.54600000     16.00000000</v>
   <v name="DARWINR">      0.00000000      0.00000000</v>
   <v name="DARWINV">      1.00000000      1.00000000</v>
   <i type="logical" name="LCORR"> T  </i>
  </separator>
  <i type="logical" name="GGA_COMPAT"> T  </i>
  <i type="logical" name="LBERRY"> F  </i>
  <i type="int" name="ICORELEVEL">     0</i>
  <i type="logical" name="LDAU"> F  </i>
  <i type="int" name="I_CONSTRAINED_M">     0</i>
  <separator name="electronic exchange-correlation" >
   <i type="string" name="GGA">--</i>
   <i type="int" name="VOSKOWN">     0</i>
   <i type="logical" name="LHFCALC"> F  </i>
   <i type="string" name="PRECFOCK"></i>
   <i type="logical" name="LSYMGRAD"> F  </i>
   <i type="logical" name="LHFONE"> F  </i>
   <i type="logical" name="LRHFCALC"> F  </i>
   <i type="logical" name="LTHOMAS"> F  </i>
   <i type="logical" name="LMODELHF"> F  </i>
   <i name="ENCUT4O">     -1.00000000</i>
   <i type="int" name="EXXOEP">     0</i>
   <i type="int" name="FOURORBIT">     0</i>
   <i name="AEXX">      0.00000000</i>
   <i name="HFALPHA">      0.00000000</i>
   <i name="MCALPHA">      0.00000000</i>
   <i name="ALDAX">      1.00000000</i>
   <i name="AGGAX">      1.00000000</i>
   <i name="ALDAC">      1.00000000</i>
   <i name="AGGAC">      1.00000000</i>
   <i type="int" name="NKREDX">     1</i>
   <i type="int" name="NKREDY">     1</i>
   <i type="int" name="NKREDZ">     1</i>
   <i type="logical" name="SHIFTRED"> F  </i>
   <i type="logical" name="ODDONLY"> F  </i>
   <i type="logical" name="EVENONLY"> F  </i>
   <i type="int" name="LMAXFOCK">     0</i>
   <i type="int" name="NMAXFOCKAE">     0</i>
   <i type="logical" name="LFOCKAEDFT"> F  </i>
   <i name="HFSCREEN">      0.00000000</i>
   <i name="HFSCREENC">      0.00000000</i>
   <i type="int" name="NBANDSGWLOW">     0</i>
  </separator>
  <separator name="vdW DFT" >
   <i type="logical" name="LUSE_VDW"> F  </i>
   <i name="Zab_VDW">     -0.84910000</i>
   <i name="PARAM1">      0.12340000</i>
   <i name="PARAM2">      1.00000000</i>
   <i name="PARAM3">      0.00000000</i>
  </separator>
  <separator name="model GW" >
   <i type="int" name="MODEL_GW">     0</i>
   <i name="MODEL_EPS0">     13.16858037</i>
   <i name="MODEL_ALPHA">      1.00000000</i>
  </separator>
  <separator name="linear response parameters" >
   <i type="logical" name="LEPSILON"> F  </i>
   <i type="logical" name="LRPA"> F  </i>
   <i type="logical" name="LNABLA"> F  </i>
   <i type="logical" name="LVEL"> F  </i>
   <i type="int" name="KINTER">     0</i>
   <i name="CSHIFT">      0.10000000</i>
   <i name="OMEGAMAX">     -1.00000000</i>
   <i name="DEG_THRESHOLD">      0.00200000</i>
   <i name="RTIME">     -0.10000000</i>
   <i name="WPLASMAI">      0.00000000</i>
   <v name="DFIELD">      0.00000000      0.00000000      0.00000000</v>
   <v name="WPLASMA">      0.00000000      0.00000000      0.00000000      0.00000000      0.00000000      0.00000000      0.00000000      0.00000000      0.00000000</v>
  </separator>
  <separator name="orbital magnetization" >
   <i type="logical" name="NUCIND"> F  </i>
   <v name="MAGPOS">      0.00000000      0.00000000      0.00000000</v>
   <i type="logical" name="LNICSALL"> T  </i>
   <i type="logical" name="ORBITALMAG"> F  </i>
   <i type="logical" name="LMAGBLOCH"> F  </i>
   <i type="logical" name="LCHIMAG"> F  </i>
   <i type="logical" name="LGAUGE"> T  </i>
   <i type="int" name="MAGATOM">     0</i>
   <v name="MAGDIPOL">      0.00000000      0.00000000      0.00000000</v>
   <v name="AVECCONST">      0.00000000      0.00000000      0.00000000</v>
  </separator>
  <separator name="response functions" >
   <i type="logical" name="LADDER"> F  </i>
   <i type="logical" name="LRPAFORCE"> F  </i>
   <i type="logical" name="LFXC"> F  </i>
   <i type="logical" name="LHARTREE"> T  </i>
   <i type="int" name="IBSE">     0</i>
   <v type="int" name="KPOINT">    -1     0     0     0</v>
   <i type="logical" name="LTCTE"> F  </i>
   <i type="logical" name="LTETE"> F  </i>
   <i type="logical" name="LTRIPLET"> F  </i>
   <i type="logical" name="LFXCEPS"> F  </i>
   <i type="logical" name="LFXHEG"> F  </i>
   <i type="int" name="NATURALO">     2</i>
   <i type="logical" name="L2ORDER"> F  </i>
   <i type="logical" name="LMP2LT"> F  </i>
   <i type="logical" name="LUSEW"> F  </i>
   <i name="ENCUTGW">     -2.00000000</i>
   <i name="ENCUTGWSOFT">     -2.00000000</i>
   <i name="ENCUTLF">     -1.00000000</i>
   <i type="int" name="LMAXMP2">    -1</i>
   <i name="SCISSOR">      0.00000000</i>
   <i type="int" name="NOMEGA">     0</i>
   <i type="int" name="NOMEGAR">     0</i>
   <i type="int" name="NBANDSGW">    -1</i>
   <i type="int" name="NBANDSO">    -1</i>
   <i type="int" name="NBANDSV">    -1</i>
   <i type="int" name="NELM">   300</i>
   <i type="int" name="NELMHF">     1</i>
   <i type="int" name="DIM">     3</i>
   <i type="int" name="ANTIRES">     0</i>
   <i name="OMEGAMAX">    -30.00000000</i>
   <i name="OMEGAMIN">    -30.00000000</i>
   <i name="OMEGATL">   -200.00000000</i>
   <i type="int" name="OMEGAGRID">   140</i>
   <i name="CSHIFT">     -0.10000000</i>
   <i type="logical" name="SELFENERGY"> F  </i>
   <i type="logical" name="LSPECTRAL"> F  </i>
   <i type="logical" name="LSPECTRALGW"> F  </i>
   <i type="logical" name="LSINGLES"> F  </i>
   <i type="logical" name="LFERMIGW"> F  </i>
   <i type="logical" name="ODDONLYGW"> F  </i>
   <i type="logical" name="EVENONLYGW"> F  </i>
   <i type="int" name="NKREDLFX">     1</i>
   <i type="int" name="NKREDLFY">     1</i>
   <i type="int" name="NKREDLFZ">     1</i>
   <i type="int" name="MAXMEM">  2800</i>
   <i type="int" name="TELESCOPE">     0</i>
   <i type="int" name="TAUPAR">     1</i>
   <i type="int" name="OMEGAPAR">    -1</i>
   <i name="LAMBDA">      1.00000000</i>
  </separator>
  <separator name="External order field" >
   <i name="OFIELD_KAPPA">      0.00000000</i>
   <v name="OFIELD_K">      0.00000000      0.00000000      0.00000000</v>
   <i name="OFIELD_Q6_NEAR">      0.00000000</i>
   <i name="OFIELD_Q6_FAR">      0.00000000</i>
   <i name="OFIELD_A">      0.00000000</i>
  </separator>
 </parameters>
 <atominfo>
  <atoms>     116 </atoms>
  <types>       2 </types>
  <array name="atoms" >
   <dimension dim="1">ion</dimension>
   <field type="string">element</field>
   <field type="int">atomtype</field>
   <set>
    <rc><c>Cu</c><c>   1</c></rc>
    <rc><c>Cu</c><c>   1</c></rc>
    <rc><c>Cu</c><c>   1</c></rc>
    <rc><c>Cu</c><c>   1</c></rc>
    <rc><c>Cu</c><c>   1</c></rc>
    <rc><c>Cu</c><c>   1</c></rc>
    <rc><c>Cu</c><c>   1</c></rc>
    <rc><c>Cu</c><c>   1</c></rc>
    <rc><c>Cu</c><c>   1</c></rc>
    <rc><c>Cu</c><c>   1</c></rc>
    <rc><c>Cu</c><c>   1</c></rc>
    <rc><c>Cu</c><c>   1</c></rc>
    <rc><c>Cu</c><c>   1</c></rc>
    <rc><c>Cu</c><c>   1</c></rc>
    <rc><c>Cu</c><c>   1</c></rc>
    <rc><c>Cu</c><c>   1</c></rc>
    <rc><c>Cu</c><c>   1</c></rc>
    <rc><c>Cu</c><c>   1</c></rc>
    <rc><c>Cu</c><c>   1</c></rc>
    <rc><c>Cu</c><c>   1</c></rc>
    <rc><c>Cu</c><c>   1</c></rc>
    <rc><c>Cu</c><c>   1</c></rc>
    <rc><c>Cu</c><c>   1</c></rc>
    <rc><c>Cu</c><c>   1</c></rc>
    <rc><c>Cu</c><c>   1</c></rc>
    <rc><c>Cu</c><c>   1</c></rc>
    <rc><c>Cu</c><c>   1</c></rc>
    <rc><c>Cu</c><c>   1</c></rc>
    <rc><c>Cu</c><c>   1</c></rc>
    <rc><c>Cu</c><c>   1</c></rc>
    <rc><c>Cu</c><c>   1</c></rc>
    <rc><c>Cu</c><c>   1</c></rc>
    <rc><c>Cu</c><c>   1</c></rc>
    <rc><c>Cu</c><c>   1</c></rc>
    <rc><c>Cu</c><c>   1</c></rc>
    <rc><c>Cu</c><c>   1</c></rc>
    <rc><c>Cu</c><c>   1</c></rc>
    <rc><c>Cu</c><c>   1</c></rc>
    <rc><c>Cu</c><c>   1</c></rc>
    <rc><c>Cu</c><c>   1</c></rc>
    <rc><c>Cu</c><c>   1</c></rc>
    <rc><c>Cu</c><c>   1</c></rc>
    <rc><c>Cu</c><c>   1</c></rc>
    <rc><c>Cu</c><c>   1</c></rc>
    <rc><c>Cu</c><c>   1</c></rc>
    <rc><c>Cu</c><c>   1</c></rc>
    <rc><c>Cu</c><c>   1</c></rc>
    <rc><c>Cu</c><c>   1</c></rc>
    <rc><c>Cu</c><c>   1</c></rc>
    <rc><c>Cu</c><c>   1</c></rc>
    <rc><c>Cu</c><c>   1</c></rc>
    <rc><c>Cu</c><c>   1</c></rc>
    <rc><c>Cu</c><c>   1</c></rc>
    <rc><c>Cu</c><c>   1</c></rc>
    <rc><c>Cu</c><c>   1</c></rc>
    <rc><c>Cu</c><c>   1</c></rc>
    <rc><c>Cu</c><c>   1</c></rc>
    <rc><c>Cu</c><c>   1</c></rc>
    <rc><c>Cu</c><c>   1</c></rc>
    <rc><c>Cu</c><c>   1</c></rc>
    <rc><c>Cu</c><c>   1</c></rc>
    <rc><c>Cu</c><c>   1</c></rc>
    <rc><c>Cu</c><c>   1</c></rc>
    <rc><c>Cu</c><c>   1</c></rc>
    <rc><c>Cu</c><c>   1</c></rc>
    <rc><c>Cu</c><c>   1</c></rc>
    <rc><c>Cu</c><c>   1</c></rc>
    <rc><c>Cu</c><c>   1</c></rc>
    <rc><c>Cu</c><c>   1</c></rc>
    <rc><c>Cu</c><c>   1</c></rc>
    <rc><c>Cu</c><c>   1</c></rc>
    <rc><c>Cu</c><c>   1</c></rc>
    <rc><c>Cu</c><c>   1</c></rc>
    <rc><c>Cu</c><c>   1</c></rc>
    <rc><c>Cu</c><c>   1</c></rc>
    <rc><c>Cu</c><c>   1</c></rc>
    <rc><c>Cu</c><c>   1</c></rc>
    <rc><c>Cu</c><c>   1</c></rc>
    <rc><c>Cu</c><c>   1</c></rc>
    <rc><c>Cu</c><c>   1</c></rc>
    <rc><c>Cu</c><c>   1</c></rc>
    <rc><c>Cu</c><c>   1</c></rc>
    <rc><c>Cu</c><c>   1</c></rc>
    <rc><c>Cu</c><c>   1</c></rc>
    <rc><c>Cu</c><c>   1</c></rc>
    <rc><c>Cu</c><c>   1</c></rc>
    <rc><c>Cu</c><c>   1</c></rc>
    <rc><c>Cu</c><c>   1</c></rc>
    <rc><c>Cu</c><c>   1</c></rc>
    <rc><c>Cu</c><c>   1</c></rc>
    <rc><c>Cu</c><c>   1</c></rc>
    <rc><c>Cu</c><c>   1</c></rc>
    <rc><c>Cu</c><c>   1</c></rc>
    <rc><c>Cu</c><c>   1</c></rc>
    <rc><c>Cu</c><c>   1</c></rc>
    <rc><c>Cu</c><c>   1</c></rc>
    <rc><c>Cu</c><c>   1</c></rc>
    <rc><c>Cu</c><c>   1</c></rc>
    <rc><c>Cu</c><c>   1</c></rc>
    <rc><c>Cu</c><c>   1</c></rc>
    <rc><c>Cu</c><c>   1</c></rc>
    <rc><c>Cu</c><c>   1</c></rc>
    <rc><c>Cu</c><c>   1</c></rc>
    <rc><c>Cu</c><c>   1</c></rc>
    <rc><c>Cu</c><c>   1</c></rc>
    <rc><c>Cu</c><c>   1</c></rc>
    <rc><c>Cu</c><c>   1</c></rc>
    <rc><c>Cu</c><c>   1</c></rc>
    <rc><c>Cu</c><c>   1</c></rc>
    <rc><c>Cu</c><c>   1</c></rc>
    <rc><c>Cu</c><c>   1</c></rc>
    <rc><c>Cu</c><c>   1</c></rc>
    <rc><c>O </c><c>   2</c></rc>
    <rc><c>O </c><c>   2</c></rc>
    <rc><c>O </c><c>   2</c></rc>
    <rc><c>O </c><c>   2</c></rc>
   </set>
  </array>
  <array name="atomtypes" >
   <dimension dim="1">type</dimension>
   <field type="int">atomspertype</field>
   <field type="string">element</field>
   <field>mass</field>
   <field>valence</field>
   <field type="string">pseudopotential</field>
   <set>
    <rc><c> 112</c><c>Cu</c><c>     63.54600000</c><c>     11.00000000</c><c> PAW_PBE Cu 05Jan2001                   </c></rc>
    <rc><c>   4</c><c>O </c><c>     16.00000000</c><c>      6.00000000</c><c> PAW_PBE O 08Apr2002                    </c></rc>
   </set>
  </array>
 </atominfo>
 <structure name="initialpos" >
  <crystal>
   <varray name="basis" >
    <v>      10.28518105       0.00000000       0.00000000 </v>
    <v>       5.14259052       8.90722807       0.00000000 </v>
    <v>       0.00000000       0.00000000      27.79016876 </v>
   </varray>
   <i name="volume">   2545.92553775 </i>
   <varray name="rec_basis" >
    <v>       0.09722726      -0.05613419       0.00000000 </v>
    <v>       0.00000000       0.11226837       0.00000000 </v>
    <v>       0.00000000       0.00000000       0.03598395 </v>
   </varray>
  </crystal>
  <varray name="positions" >
   <v>       0.00000000       0.00000000       0.22663990 </v>
   <v>       0.00000000       0.50000000       0.22663990 </v>
   <v>       0.50000000       0.00000000       0.22663990 </v>
   <v>       0.50000000       0.50000000       0.22663990 </v>
   <v>       0.00000000       0.25000000       0.22663990 </v>
   <v>       0.00000000       0.75000000       0.22663990 </v>
   <v>       0.50000000       0.25000000       0.22663990 </v>
   <v>       0.50000000       0.75000000       0.22663990 </v>
   <v>       0.25000000       0.00000000       0.22663990 </v>
   <v>       0.25000000       0.50000000       0.22663990 </v>
   <v>       0.75000000       0.00000000       0.22663990 </v>
   <v>       0.75000000       0.50000000       0.22663990 </v>
   <v>       0.25000000       0.25000000       0.22663990 </v>
   <v>       0.25000000       0.75000000       0.22663990 </v>
   <v>       0.75000000       0.25000000       0.22663990 </v>
   <v>       0.75000000       0.75000000       0.22663990 </v>
   <v>       0.16666666       0.16666666       0.30218653 </v>
   <v>       0.16666666       0.66666666       0.30218653 </v>
   <v>       0.66666666       0.16666666       0.30218653 </v>
   <v>       0.66666666       0.66666666       0.30218653 </v>
   <v>       0.16666666       0.41666666       0.30218653 </v>
   <v>       0.16666666       0.91666666       0.30218653 </v>
   <v>       0.66666666       0.41666666       0.30218653 </v>
   <v>       0.66666666       0.91666666       0.30218653 </v>
   <v>       0.41666666       0.16666666       0.30218653 </v>
   <v>       0.41666666       0.66666666       0.30218653 </v>
   <v>       0.91666666       0.16666666       0.30218653 </v>
   <v>       0.91666666       0.66666666       0.30218653 </v>
   <v>       0.41666666       0.41666666       0.30218653 </v>
   <v>       0.41666666       0.91666666       0.30218653 </v>
   <v>       0.91666666       0.41666666       0.30218653 </v>
   <v>       0.91666666       0.91666666       0.30218653 </v>
   <v>       0.08333333       0.08333333       0.37716320 </v>
   <v>       0.08333333       0.58333333       0.37716320 </v>
   <v>       0.58333333       0.08333333       0.37716320 </v>
   <v>       0.58333333       0.58333333       0.37716320 </v>
   <v>       0.08351614       0.33324190       0.37729758 </v>
   <v>       0.08351614       0.83324190       0.37729758 </v>
   <v>       0.58351614       0.33324190       0.37729758 </v>
   <v>       0.58351614       0.83324190       0.37729758 </v>
   <v>       0.33324190       0.08351614       0.37729758 </v>
   <v>       0.33324190       0.58351614       0.37729758 </v>
   <v>       0.83324190       0.08351614       0.37729758 </v>
   <v>       0.83324190       0.58351614       0.37729758 </v>
   <v>       0.33324190       0.33324190       0.37729758 </v>
   <v>       0.33324190       0.83324190       0.37729758 </v>
   <v>       0.83324190       0.33324190       0.37729758 </v>
   <v>       0.83324190       0.83324190       0.37729758 </v>
   <v>       0.00012997       0.00012997       0.45242342 </v>
   <v>       0.00012997       0.50012997       0.45242342 </v>
   <v>       0.50012997       0.00012997       0.45242342 </v>
   <v>       0.50012997       0.50012997       0.45242342 </v>
   <v>       0.00012997       0.24974005       0.45242342 </v>
   <v>       0.00012997       0.74974005       0.45242342 </v>
   <v>       0.50012997       0.24974005       0.45242342 </v>
   <v>       0.50012997       0.74974005       0.45242342 </v>
   <v>       0.24974005       0.00012997       0.45242342 </v>
   <v>       0.24974005       0.50012997       0.45242342 </v>
   <v>       0.74974005       0.00012997       0.45242342 </v>
   <v>       0.74974005       0.50012997       0.45242342 </v>
   <v>       0.25000000       0.25000000       0.45288750 </v>
   <v>       0.25000000       0.75000000       0.45288750 </v>
   <v>       0.75000000       0.25000000       0.45288750 </v>
   <v>       0.75000000       0.75000000       0.45288750 </v>
   <v>       0.16581213       0.16819370       0.52864795 </v>
   <v>       0.16660598       0.66660598       0.52813907 </v>
   <v>       0.66660598       0.16660598       0.52813907 </v>
   <v>       0.66660598       0.66660598       0.52813907 </v>
   <v>       0.16660598       0.41678801       0.52813907 </v>
   <v>       0.16660598       0.91678801       0.52813907 </v>
   <v>       0.66660598       0.41678801       0.52813907 </v>
   <v>       0.66660598       0.91678801       0.52813907 </v>
   <v>       0.41678801       0.16660598       0.52813907 </v>
   <v>       0.41678801       0.66660598       0.52813907 </v>
   <v>       0.91678801       0.16660598       0.52813907 </v>
   <v>       0.91678801       0.66660598       0.52813907 </v>
   <v>       0.41666666       0.41666666       0.52741939 </v>
   <v>       0.41666666       0.91666666       0.52741939 </v>
   <v>       0.91666666       0.41666666       0.52741939 </v>
   <v>       0.91666666       0.91666666       0.52741939 </v>
   <v>       0.08333333       0.08333333       0.60253339 </v>
   <v>       0.08333333       0.58333333       0.60253339 </v>
   <v>       0.58333333       0.08333333       0.60253339 </v>
   <v>       0.58333333       0.58333333       0.60253339 </v>
   <v>       0.08130935       0.33434529       0.60320464 </v>
   <v>       0.08130935       0.83434529       0.60320464 </v>
   <v>       0.58130935       0.33434529       0.60320464 </v>
   <v>       0.58130935       0.83434529       0.60320464 </v>
   <v>       0.33434529       0.08130935       0.60320464 </v>
   <v>       0.33434529       0.58130935       0.60320464 </v>
   <v>       0.83434529       0.08130935       0.60320464 </v>
   <v>       0.83434529       0.58130935       0.60320464 </v>
   <v>       0.33434529       0.33434529       0.60320464 </v>
   <v>       0.33434529       0.83434529       0.60320464 </v>
   <v>       0.83434529       0.33434529       0.60320464 </v>
   <v>       0.83434529       0.83434529       0.60320464 </v>
   <v>       0.49714648       0.49714648       0.68057248 </v>
   <v>       0.49714648       0.99714648       0.68057248 </v>
   <v>       0.99714648       0.49714648       0.68057248 </v>
   <v>       0.99714648       0.99714648       0.68057248 </v>
   <v>       0.49714648       0.25570704       0.68057248 </v>
   <v>       0.49714648       0.75570704       0.68057248 </v>
   <v>       0.99714648       0.25570704       0.68057248 </v>
   <v>       0.99714648       0.75570704       0.68057248 </v>
   <v>       0.25570704       0.49714648       0.68057248 </v>
   <v>       0.25570704       0.99714648       0.68057248 </v>
   <v>       0.75570704       0.49714648       0.68057248 </v>
   <v>       0.75570704       0.99714648       0.68057248 </v>
   <v>       0.25000000       0.25000000       0.67480871 </v>
   <v>       0.25000000       0.75000000       0.67480871 </v>
   <v>       0.75000000       0.25000000       0.67480871 </v>
   <v>       0.75000000       0.75000000       0.67480871 </v>
   <v>       0.08333333       0.08333333       0.72043888 </v>
   <v>       0.08333333       0.58333333       0.72043888 </v>
   <v>       0.58333333       0.08333333       0.72043888 </v>
   <v>       0.58333333       0.58333333       0.72043888 </v>
  </varray>
 </structure>
 <calculation>
  <scstep>
   <time name="dav">  163.14  163.43</time>
   <time name="total">  163.73  164.03</time>
   <energy>
    <i name="alphaZ">   6463.29446255 </i>
    <i name="ewald"> 664560.19701106 </i>
    <i name="hartreedc">-815315.08242505 </i>
    <i name="XCdc">   5009.43461778 </i>
    <i name="pawpsdc"> 122173.85035501 </i>
    <i name="pawaedc">-138312.01710912 </i>
    <i name="eentropy">     -0.03036746 </i>
    <i name="bandstr">   8852.87073288 </i>
    <i name="atom"> 157518.83071590 </i>
    <i name="e_fr_energy">  10951.34799356 </i>
    <i name="e_wo_entrp">  10951.37836102 </i>
    <i name="e_0_energy">  10951.36317729 </i>
   </energy>
  </scstep>
  <scstep>
   <time name="dav">  163.19  163.41</time>
   <time name="total">  163.21  163.44</time>
   <energy>
    <i name="e_fr_energy">   1074.12780600 </i>
    <i name="e_wo_entrp">   1074.17254578 </i>
    <i name="e_0_energy">   1074.15017589 </i>
   </energy>
  </scstep>
  <scstep>
   <time name="dav">  178.30  178.60</time>
   <time name="total">  178.32  178.63</time>
   <energy>
    <i name="e_fr_energy">   -373.58061845 </i>
    <i name="e_wo_entrp">   -373.51502467 </i>
    <i name="e_0_energy">   -373.54782156 </i>
   </energy>
  </scstep>
  <scstep>
   <time name="dav">  179.74  179.96</time>
   <time name="total">  179.76  179.99</time>
   <energy>
    <i name="e_fr_energy">   -524.81304665 </i>
    <i name="e_wo_entrp">   -524.74976715 </i>
    <i name="e_0_energy">   -524.78140690 </i>
   </energy>
  </scstep>
  <scstep>
   <time name="dav">  169.51  169.75</time>
   <time name="total">  174.08  174.34</time>
   <energy>
    <i name="e_fr_energy">   -530.86730353 </i>
    <i name="e_wo_entrp">   -530.80392494 </i>
    <i name="e_0_energy">   -530.83561424 </i>
   </energy>
  </scstep>
  <scstep>
   <time name="dav">  169.89  170.08</time>
   <time name="total">  174.95  175.16</time>
   <energy>
    <i name="e_fr_energy">   -478.08161743 </i>
    <i name="e_wo_entrp">   -478.02524820 </i>
    <i name="e_0_energy">   -478.05343281 </i>
   </energy>
  </scstep>
  <scstep>
   <time name="dav">  179.11  179.40</time>
   <time name="total">  184.11  184.45</time>
   <energy>
    <i name="e_fr_energy">   -511.40769963 </i>
    <i name="e_wo_entrp">   -511.28550155 </i>
    <i name="e_0_energy">   -511.34660059 </i>
   </energy>
  </scstep>
  <scstep>
   <time name="dav">  195.89  196.25</time>
   <time name="total">  200.88  201.27</time>
   <energy>
    <i name="e_fr_energy">   -444.88547976 </i>
    <i name="e_wo_entrp">   -444.80179092 </i>
    <i name="e_0_energy">   -444.84363534 </i>
   </energy>
  </scstep>
  <scstep>
   <time name="dav">  199.03  199.37</time>
   <time name="total">  204.05  204.43</time>
   <energy>
    <i name="e_fr_energy">   -428.53170965 </i>
    <i name="e_wo_entrp">   -428.49268313 </i>
    <i name="e_0_energy">   -428.51219639 </i>
   </energy>
  </scstep>
  <scstep>
   <time name="dav">  178.56  178.95</time>
   <time name="total">  183.59  183.99</time>
   <energy>
    <i name="e_fr_energy">   -429.30141300 </i>
    <i name="e_wo_entrp">   -429.24806436 </i>
    <i name="e_0_energy">   -429.27473868 </i>
   </energy>
  </scstep>
  <scstep>
   <time name="dav">  181.29  181.57</time>
   <time name="total">  186.32  186.61</time>
   <energy>
    <i name="e_fr_energy">   -427.93399582 </i>
    <i name="e_wo_entrp">   -427.86750884 </i>
    <i name="e_0_energy">   -427.90075233 </i>
   </energy>
  </scstep>
  <scstep>
   <time name="dav">  192.04  192.34</time>
   <time name="total">  197.46  197.80</time>
   <energy>
    <i name="e_fr_energy">   -427.70119207 </i>
    <i name="e_wo_entrp">   -427.64634629 </i>
    <i name="e_0_energy">   -427.67376918 </i>
   </energy>
  </scstep>
  <scstep>
   <time name="dav">  180.70  181.26</time>
   <time name="total">  185.67  186.27</time>
   <energy>
    <i name="e_fr_energy">   -427.64655981 </i>
    <i name="e_wo_entrp">   -427.59191593 </i>
    <i name="e_0_energy">   -427.61923787 </i>
   </energy>
  </scstep>
  <scstep>
   <time name="dav">  172.69  172.98</time>
   <time name="total">  177.69  178.71</time>
   <energy>
    <i name="e_fr_energy">   -427.54147026 </i>
    <i name="e_wo_entrp">   -427.49231686 </i>
    <i name="e_0_energy">   -427.51689356 </i>
   </energy>
  </scstep>
  <scstep>
   <time name="dav">  169.50  169.77</time>
   <time name="total">  174.49  174.76</time>
   <energy>
    <i name="e_fr_energy">   -427.61182953 </i>
    <i name="e_wo_entrp">   -427.56344691 </i>
    <i name="e_0_energy">   -427.58763822 </i>
   </energy>
  </scstep>
  <scstep>
   <time name="dav">  162.90  163.26</time>
   <time name="total">  167.99  168.36</time>
   <energy>
    <i name="e_fr_energy">   -427.51306455 </i>
    <i name="e_wo_entrp">   -427.46353617 </i>
    <i name="e_0_energy">   -427.48830036 </i>
   </energy>
  </scstep>
  <scstep>
   <time name="dav">  167.47  167.72</time>
   <time name="total">  172.48  172.75</time>
   <energy>
    <i name="e_fr_energy">   -427.47899843 </i>
    <i name="e_wo_entrp">   -427.42788799 </i>
    <i name="e_0_energy">   -427.45344321 </i>
   </energy>
  </scstep>
  <scstep>
   <time name="dav">  195.25  195.53</time>
   <time name="total">  200.21  200.50</time>
   <energy>
    <i name="e_fr_energy">   -427.46513064 </i>
    <i name="e_wo_entrp">   -427.41268640 </i>
    <i name="e_0_energy">   -427.43890852 </i>
   </energy>
  </scstep>
  <scstep>
   <time name="dav">  173.35  173.58</time>
   <time name="total">  180.25  180.49</time>
   <energy>
    <i name="e_fr_energy">   -427.46501693 </i>
    <i name="e_wo_entrp">   -427.41201426 </i>
    <i name="e_0_energy">   -427.43851559 </i>
   </energy>
  </scstep>
  <scstep>
   <time name="dav">  163.86  164.15</time>
   <time name="total">  168.87  169.16</time>
   <energy>
    <i name="e_fr_energy">   -427.46548676 </i>
    <i name="e_wo_entrp">   -427.41229385 </i>
    <i name="e_0_energy">   -427.43889031 </i>
   </energy>
  </scstep>
  <scstep>
   <time name="dav">  159.09  159.28</time>
   <time name="total">  164.07  164.27</time>
   <energy>
    <i name="e_fr_energy">   -427.46592487 </i>
    <i name="e_wo_entrp">   -427.41243581 </i>
    <i name="e_0_energy">   -427.43918034 </i>
   </energy>
  </scstep>
  <scstep>
   <time name="dav">  160.79  161.00</time>
   <time name="total">  165.77  165.98</time>
   <energy>
    <i name="e_fr_energy">   -427.46595165 </i>
    <i name="e_wo_entrp">   -427.41271899 </i>
    <i name="e_0_energy">   -427.43933532 </i>
   </energy>
  </scstep>
  <scstep>
   <time name="dav">  158.80  159.13</time>
   <time name="total">  163.77  164.11</time>
   <energy>
    <i name="e_fr_energy">   -427.46598048 </i>
    <i name="e_wo_entrp">   -427.41277394 </i>
    <i name="e_0_energy">   -427.43937721 </i>
   </energy>
  </scstep>
  <scstep>
   <time name="dav">  156.67  156.85</time>
   <time name="total">  161.67  161.86</time>
   <energy>
    <i name="e_fr_energy">   -427.46611489 </i>
    <i name="e_wo_entrp">   -427.41290023 </i>
    <i name="e_0_energy">   -427.43950756 </i>
   </energy>
  </scstep>
  <scstep>
   <time name="dav">  169.07  169.27</time>
   <time name="total">  174.06  174.26</time>
   <energy>
    <i name="e_fr_energy">   -427.46627001 </i>
    <i name="e_wo_entrp">   -427.41309338 </i>
    <i name="e_0_energy">   -427.43968170 </i>
   </energy>
  </scstep>
  <scstep>
   <time name="dav">  177.40  177.62</time>
   <time name="total">  182.37  182.59</time>
   <energy>
    <i name="e_fr_energy">   -427.46652019 </i>
    <i name="e_wo_entrp">   -427.41334364 </i>
    <i name="e_0_energy">   -427.43993192 </i>
   </energy>
  </scstep>
  <scstep>
   <time name="dav">  158.44  158.72</time>
   <time name="total">  163.48  163.77</time>
   <energy>
    <i name="e_fr_energy">   -427.46679126 </i>
    <i name="e_wo_entrp">   -427.41361648 </i>
    <i name="e_0_energy">   -427.44020387 </i>
   </energy>
  </scstep>
  <scstep>
   <time name="dav">  162.42  162.62</time>
   <time name="total">  167.39  167.60</time>
   <energy>
    <i name="e_fr_energy">   -427.46695319 </i>
    <i name="e_wo_entrp">   -427.41379129 </i>
    <i name="e_0_energy">   -427.44037224 </i>
   </energy>
  </scstep>
  <scstep>
   <time name="dav">  162.14  162.34</time>
   <time name="total">  167.14  167.35</time>
   <energy>
    <i name="e_fr_energy">   -427.46708769 </i>
    <i name="e_wo_entrp">   -427.41394165 </i>
    <i name="e_0_energy">   -427.44051467 </i>
   </energy>
  </scstep>
  <scstep>
   <time name="dav">  152.52  152.70</time>
   <time name="total">  157.60  157.80</time>
   <energy>
    <i name="e_fr_energy">   -427.46719051 </i>
    <i name="e_wo_entrp">   -427.41404621 </i>
    <i name="e_0_energy">   -427.44061836 </i>
   </energy>
  </scstep>
  <scstep>
   <time name="dav">  155.72  155.99</time>
   <time name="total">  160.69  160.97</time>
   <energy>
    <i name="e_fr_energy">   -427.46728675 </i>
    <i name="e_wo_entrp">   -427.41412903 </i>
    <i name="e_0_energy">   -427.44070789 </i>
   </energy>
  </scstep>
  <scstep>
   <time name="dav">  155.45  155.64</time>
   <time name="total">  160.83  161.03</time>
   <energy>
    <i name="e_fr_energy">   -427.46734441 </i>
    <i name="e_wo_entrp">   -427.41417172 </i>
    <i name="e_0_energy">   -427.44075806 </i>
   </energy>
  </scstep>
  <scstep>
   <time name="dav">  125.22  125.37</time>
   <time name="total">  130.22  130.37</time>
   <energy>
    <i name="e_fr_energy">   -427.46737164 </i>
    <i name="e_wo_entrp">   -427.41419696 </i>
    <i name="e_0_energy">   -427.44078430 </i>
   </energy>
  </scstep>
  <scstep>
   <time name="dav">  116.66  116.81</time>
   <time name="total">  122.13  122.28</time>
   <energy>
    <i name="e_fr_energy">   -427.46739538 </i>
    <i name="e_wo_entrp">   -427.41422759 </i>
    <i name="e_0_energy">   -427.44081148 </i>
   </energy>
  </scstep>
  <scstep>
   <time name="dav">  121.83  122.06</time>
   <time name="total">  127.52  127.76</time>
   <energy>
    <i name="e_fr_energy">   -427.46741149 </i>
    <i name="e_wo_entrp">   -427.41424827 </i>
    <i name="e_0_energy">   -427.44082988 </i>
   </energy>
  </scstep>
  <scstep>
   <time name="dav">  111.66  111.80</time>
   <time name="total">  118.96  119.11</time>
   <energy>
    <i name="e_fr_energy">   -427.46741952 </i>
    <i name="e_wo_entrp">   -427.41425869 </i>
    <i name="e_0_energy">   -427.44083911 </i>
   </energy>
  </scstep>
  <scstep>
   <time name="dav">  113.49  113.63</time>
   <time name="total">  118.48  118.63</time>
   <energy>
    <i name="e_fr_energy">   -427.46742837 </i>
    <i name="e_wo_entrp">   -427.41426664 </i>
    <i name="e_0_energy">   -427.44084750 </i>
   </energy>
  </scstep>
  <scstep>
   <time name="dav">  116.14  116.28</time>
   <time name="total">  121.14  121.29</time>
   <energy>
    <i name="e_fr_energy">   -427.46743138 </i>
    <i name="e_wo_entrp">   -427.41426810 </i>
    <i name="e_0_energy">   -427.44084974 </i>
   </energy>
  </scstep>
  <scstep>
   <time name="dav">  114.73  114.88</time>
   <time name="total">  119.74  119.90</time>
   <energy>
    <i name="e_fr_energy">   -427.46743277 </i>
    <i name="e_wo_entrp">   -427.41426915 </i>
    <i name="e_0_energy">   -427.44085096 </i>
   </energy>
  </scstep>
  <scstep>
   <time name="dav">  114.51  114.74</time>
   <time name="total">  119.49  119.73</time>
   <energy>
    <i name="e_fr_energy">   -427.46743395 </i>
    <i name="e_wo_entrp">   -427.41426995 </i>
    <i name="e_0_energy">   -427.44085195 </i>
   </energy>
  </scstep>
  <scstep>
   <time name="dav">  112.46  112.77</time>
   <time name="total">  112.96  113.27</time>
   <energy>
    <i name="alphaZ">   6463.29446255 </i>
    <i name="ewald"> 664560.19701106 </i>
    <i name="hartreedc">-813351.17766432 </i>
    <i name="XCdc">   4896.83260033 </i>
    <i name="pawpsdc"> 123760.06157993 </i>
    <i name="pawaedc">-139977.12515959 </i>
    <i name="eentropy">     -0.05316400 </i>
    <i name="bandstr">  -4298.32781637 </i>
    <i name="atom"> 157518.83071590 </i>
    <i name="e_fr_energy">   -427.46743451 </i>
    <i name="e_wo_entrp">   -427.41427051 </i>
    <i name="e_0_energy">   -427.44085251 </i>
   </energy>
  </scstep>
  <structure>
   <crystal>
    <varray name="basis" >
     <v>      10.28518105       0.00000000       0.00000000 </v>
     <v>       5.14259052       8.90722807       0.00000000 </v>
     <v>       0.00000000       0.00000000      27.79016876 </v>
    </varray>
    <i name="volume">   2545.92553775 </i>
    <varray name="rec_basis" >
     <v>       0.09722726      -0.05613419       0.00000000 </v>
     <v>       0.00000000       0.11226837       0.00000000 </v>
     <v>       0.00000000       0.00000000       0.03598395 </v>
    </varray>
   </crystal>
   <varray name="positions" >
    <v>       0.00000000       0.00000000       0.22663990 </v>
    <v>       0.00000000       0.50000000       0.22663990 </v>
    <v>       0.50000000       0.00000000       0.22663990 </v>
    <v>       0.50000000       0.50000000       0.22663990 </v>
    <v>       0.00000000       0.25000000       0.22663990 </v>
    <v>       0.00000000       0.75000000       0.22663990 </v>
    <v>       0.50000000       0.25000000       0.22663990 </v>
    <v>       0.50000000       0.75000000       0.22663990 </v>
    <v>       0.25000000       0.00000000       0.22663990 </v>
    <v>       0.25000000       0.50000000       0.22663990 </v>
    <v>       0.75000000       0.00000000       0.22663990 </v>
    <v>       0.75000000       0.50000000       0.22663990 </v>
    <v>       0.25000000       0.25000000       0.22663990 </v>
    <v>       0.25000000       0.75000000       0.22663990 </v>
    <v>       0.75000000       0.25000000       0.22663990 </v>
    <v>       0.75000000       0.75000000       0.22663990 </v>
    <v>       0.16666666       0.16666666       0.30218653 </v>
    <v>       0.16666666       0.66666666       0.30218653 </v>
    <v>       0.66666666       0.16666666       0.30218653 </v>
    <v>       0.66666666       0.66666666       0.30218653 </v>
    <v>       0.16666666       0.41666666       0.30218653 </v>
    <v>       0.16666666       0.91666666       0.30218653 </v>
    <v>       0.66666666       0.41666666       0.30218653 </v>
    <v>       0.66666666       0.91666666       0.30218653 </v>
    <v>       0.41666666       0.16666666       0.30218653 </v>
    <v>       0.41666666       0.66666666       0.30218653 </v>
    <v>       0.91666666       0.16666666       0.30218653 </v>
    <v>       0.91666666       0.66666666       0.30218653 </v>
    <v>       0.41666666       0.41666666       0.30218653 </v>
    <v>       0.41666666       0.91666666       0.30218653 </v>
    <v>       0.91666666       0.41666666       0.30218653 </v>
    <v>       0.91666666       0.91666666       0.30218653 </v>
    <v>       0.08333333       0.08333333       0.37716320 </v>
    <v>       0.08333333       0.58333333       0.37716320 </v>
    <v>       0.58333333       0.08333333       0.37716320 </v>
    <v>       0.58333333       0.58333333       0.37716320 </v>
    <v>       0.08351614       0.33324190       0.37729758 </v>
    <v>       0.08351614       0.83324190       0.37729758 </v>
    <v>       0.58351614       0.33324190       0.37729758 </v>
    <v>       0.58351614       0.83324190       0.37729758 </v>
    <v>       0.33324190       0.08351614       0.37729758 </v>
    <v>       0.33324190       0.58351614       0.37729758 </v>
    <v>       0.83324190       0.08351614       0.37729758 </v>
    <v>       0.83324190       0.58351614       0.37729758 </v>
    <v>       0.33324190       0.33324190       0.37729758 </v>
    <v>       0.33324190       0.83324190       0.37729758 </v>
    <v>       0.83324190       0.33324190       0.37729758 </v>
    <v>       0.83324190       0.83324190       0.37729758 </v>
    <v>       0.00012997       0.00012997       0.45242342 </v>
    <v>       0.00012997       0.50012997       0.45242342 </v>
    <v>       0.50012997       0.00012997       0.45242342 </v>
    <v>       0.50012997       0.50012997       0.45242342 </v>
    <v>       0.00012997       0.24974005       0.45242342 </v>
    <v>       0.00012997       0.74974005       0.45242342 </v>
    <v>       0.50012997       0.24974005       0.45242342 </v>
    <v>       0.50012997       0.74974005       0.45242342 </v>
    <v>       0.24974005       0.00012997       0.45242342 </v>
    <v>       0.24974005       0.50012997       0.45242342 </v>
    <v>       0.74974005       0.00012997       0.45242342 </v>
    <v>       0.74974005       0.50012997       0.45242342 </v>
    <v>       0.25000000       0.25000000       0.45288750 </v>
    <v>       0.25000000       0.75000000       0.45288750 </v>
    <v>       0.75000000       0.25000000       0.45288750 </v>
    <v>       0.75000000       0.75000000       0.45288750 </v>
    <v>       0.16581213       0.16819370       0.52864795 </v>
    <v>       0.16660598       0.66660598       0.52813907 </v>
    <v>       0.66660598       0.16660598       0.52813907 </v>
    <v>       0.66660598       0.66660598       0.52813907 </v>
    <v>       0.16660598       0.41678801       0.52813907 </v>
    <v>       0.16660598       0.91678801       0.52813907 </v>
    <v>       0.66660598       0.41678801       0.52813907 </v>
    <v>       0.66660598       0.91678801       0.52813907 </v>
    <v>       0.41678801       0.16660598       0.52813907 </v>
    <v>       0.41678801       0.66660598       0.52813907 </v>
    <v>       0.91678801       0.16660598       0.52813907 </v>
    <v>       0.91678801       0.66660598       0.52813907 </v>
    <v>       0.41666666       0.41666666       0.52741939 </v>
    <v>       0.41666666       0.91666666       0.52741939 </v>
    <v>       0.91666666       0.41666666       0.52741939 </v>
    <v>       0.91666666       0.91666666       0.52741939 </v>
    <v>       0.08333333       0.08333333       0.60253339 </v>
    <v>       0.08333333       0.58333333       0.60253339 </v>
    <v>       0.58333333       0.08333333       0.60253339 </v>
    <v>       0.58333333       0.58333333       0.60253339 </v>
    <v>       0.08130935       0.33434529       0.60320464 </v>
    <v>       0.08130935       0.83434529       0.60320464 </v>
    <v>       0.58130935       0.33434529       0.60320464 </v>
    <v>       0.58130935       0.83434529       0.60320464 </v>
    <v>       0.33434529       0.08130935       0.60320464 </v>
    <v>       0.33434529       0.58130935       0.60320464 </v>
    <v>       0.83434529       0.08130935       0.60320464 </v>
    <v>       0.83434529       0.58130935       0.60320464 </v>
    <v>       0.33434529       0.33434529       0.60320464 </v>
    <v>       0.33434529       0.83434529       0.60320464 </v>
    <v>       0.83434529       0.33434529       0.60320464 </v>
    <v>       0.83434529       0.83434529       0.60320464 </v>
    <v>       0.49714648       0.49714648       0.68057248 </v>
    <v>       0.49714648       0.99714648       0.68057248 </v>
    <v>       0.99714648       0.49714648       0.68057248 </v>
    <v>       0.99714648       0.99714648       0.68057248 </v>
    <v>       0.49714648       0.25570704       0.68057248 </v>
    <v>       0.49714648       0.75570704       0.68057248 </v>
    <v>       0.99714648       0.25570704       0.68057248 </v>
    <v>       0.99714648       0.75570704       0.68057248 </v>
    <v>       0.25570704       0.49714648       0.68057248 </v>
    <v>       0.25570704       0.99714648       0.68057248 </v>
    <v>       0.75570704       0.49714648       0.68057248 </v>
    <v>       0.75570704       0.99714648       0.68057248 </v>
    <v>       0.25000000       0.25000000       0.67480871 </v>
    <v>       0.25000000       0.75000000       0.67480871 </v>
    <v>       0.75000000       0.25000000       0.67480871 </v>
    <v>       0.75000000       0.75000000       0.67480871 </v>
    <v>       0.08333333       0.08333333       0.72043888 </v>
    <v>       0.08333333       0.58333333       0.72043888 </v>
    <v>       0.58333333       0.08333333       0.72043888 </v>
    <v>       0.58333333       0.58333333       0.72043888 </v>
   </varray>
  </structure>
  <varray name="forces" >
   <v>       0.00786464       0.00453401       0.07161820 </v>
   <v>       0.00790302       0.00472435       0.07161646 </v>
   <v>       0.00797128       0.00454322       0.07165407 </v>
   <v>       0.00795691       0.00468851       0.07170278 </v>
   <v>       0.00007196      -0.00912415       0.07165170 </v>
   <v>       0.00011329      -0.00915153       0.07152384 </v>
   <v>       0.00021876      -0.00923718       0.07164827 </v>
   <v>       0.00006656      -0.00914905       0.07171974 </v>
   <v>      -0.00789127       0.00463410       0.07168823 </v>
   <v>      -0.00784013       0.00460180       0.07173094 </v>
   <v>      -0.00790764       0.00446343       0.07169186 </v>
   <v>      -0.00801207       0.00459137       0.07172927 </v>
   <v>      -0.00009491       0.00004639       0.08640101 </v>
   <v>      -0.00019494       0.00003496       0.08637442 </v>
   <v>      -0.00007963      -0.00006481       0.08631529 </v>
   <v>      -0.00008184      -0.00005110       0.08626480 </v>
   <v>       0.00697815       0.00404020      -0.07994279 </v>
   <v>       0.00703536       0.00411381      -0.07997671 </v>
   <v>       0.00696711       0.00417849      -0.08004498 </v>
   <v>       0.00700723       0.00424626      -0.08001621 </v>
   <v>       0.00012744      -0.00830266      -0.07996504 </v>
   <v>      -0.00001842      -0.00808082      -0.07992515 </v>
   <v>       0.00019154      -0.00783393      -0.07992761 </v>
   <v>       0.00013192      -0.00805402      -0.07982363 </v>
   <v>      -0.00694411       0.00382357      -0.07996899 </v>
   <v>      -0.00688082       0.00396106      -0.07974906 </v>
   <v>      -0.00708191       0.00386441      -0.07992111 </v>
   <v>      -0.00702110       0.00381454      -0.07990808 </v>
   <v>      -0.00014071       0.00026467      -0.05908069 </v>
   <v>      -0.00010537      -0.00001253      -0.05916219 </v>
   <v>      -0.00005680      -0.00025513      -0.05920581 </v>
   <v>      -0.00024871       0.00014867      -0.05913784 </v>
   <v>       0.00007353       0.00011603       0.00085292 </v>
   <v>       0.00001694       0.00007669       0.00006841 </v>
   <v>       0.00012516      -0.00012032      -0.00018538 </v>
   <v>      -0.00005050      -0.00009959       0.00011133 </v>
   <v>      -0.00006113      -0.00011209       0.00060610 </v>
   <v>      -0.00002902      -0.00010429      -0.00015240 </v>
   <v>       0.00005677      -0.00010779       0.00003686 </v>
   <v>       0.00014580      -0.00017071      -0.00023362 </v>
   <v>      -0.00018434       0.00013246       0.00083619 </v>
   <v>      -0.00006010      -0.00008067      -0.00002255 </v>
   <v>      -0.00014173      -0.00011064      -0.00022592 </v>
   <v>      -0.00002974       0.00012303       0.00001432 </v>
   <v>      -0.00006560      -0.00006484      -0.00002364 </v>
   <v>       0.00000879       0.00001423       0.00008321 </v>
   <v>       0.00003973      -0.00001236      -0.00009655 </v>
   <v>       0.00000213       0.00009332      -0.00011819 </v>
   <v>       0.00071494       0.00018155       0.00050188 </v>
   <v>      -0.00001172      -0.00024864      -0.00042096 </v>
   <v>      -0.00073618       0.00006660       0.00040181 </v>
   <v>      -0.00001827       0.00000580      -0.00013598 </v>
   <v>       0.00606355      -0.00502097       0.00923988 </v>
   <v>      -0.00014042      -0.00012559       0.00008475 </v>
   <v>       0.00000453       0.00005474       0.00009871 </v>
   <v>      -0.00027195       0.00102330       0.00049585 </v>
   <v>      -0.00008062       0.01789025       0.02538999 </v>
   <v>       0.00012093       0.00032090       0.00008114 </v>
   <v>      -0.00006314       0.00015063      -0.00001356 </v>
   <v>      -0.00002218       0.00025391       0.00023986 </v>
   <v>      -0.00652138      -0.00523206       0.01009434 </v>
   <v>       0.00022925       0.00092759       0.00046684 </v>
   <v>       0.00023288      -0.00009421       0.00009717 </v>
   <v>       0.00024666      -0.00016734       0.00004110 </v>
   <v>       0.00160530      -0.09068641      -0.09320201 </v>
   <v>       0.00024336       0.00002953      -0.00013155 </v>
   <v>       0.00002152      -0.00015394      -0.00002480 </v>
   <v>      -0.00026119       0.00013054      -0.00009559 </v>
   <v>       0.01129790       0.01837820      -0.00143343 </v>
   <v>       0.01080694       0.01741059      -0.00132147 </v>
   <v>      -0.00046465       0.00019783      -0.00031519 </v>
   <v>      -0.00019676       0.00016244      -0.00009147 </v>
   <v>      -0.00015920      -0.00173081      -0.00166415 </v>
   <v>      -0.00005324       0.00070914      -0.00003147 </v>
   <v>       0.00012913      -0.00160906      -0.00151446 </v>
   <v>       0.00008644       0.00094687      -0.00027287 </v>
   <v>       0.00021435       0.00012060       0.00001372 </v>
   <v>      -0.01082144       0.01763100      -0.00109799 </v>
   <v>      -0.01122345       0.01806010      -0.00158943 </v>
   <v>       0.00047125       0.00027878      -0.00020110 </v>
   <v>      -0.00748206      -0.00623173       0.01067312 </v>
   <v>       0.00019859       0.00089268       0.00047719 </v>
   <v>       0.00020751      -0.00007952      -0.00019249 </v>
   <v>       0.00009408      -0.00003384      -0.00012330 </v>
   <v>      -0.00092426       0.01986735       0.02925570 </v>
   <v>       0.00009807       0.00007146      -0.00024016 </v>
   <v>       0.00016681       0.00001942      -0.00044232 </v>
   <v>       0.00005698       0.00007081      -0.00027111 </v>
   <v>       0.00638600      -0.00554568       0.00958624 </v>
   <v>      -0.00017511       0.00011887      -0.00051285 </v>
   <v>      -0.00021299      -0.00011545      -0.00042518 </v>
   <v>      -0.00025079       0.00087570       0.00023558 </v>
   <v>       0.00088874       0.00007141      -0.00006454 </v>
   <v>      -0.00028961       0.00013135      -0.00064471 </v>
   <v>      -0.00075176       0.00017633       0.00000846 </v>
   <v>      -0.00018774      -0.00020034      -0.00043837 </v>
   <v>      -0.00002894       0.00011300      -0.00086562 </v>
   <v>      -0.00007798      -0.00014948      -0.00071356 </v>
   <v>       0.00022193      -0.00020026      -0.00081389 </v>
   <v>       0.00013282       0.00005266      -0.00059861 </v>
   <v>      -0.00028155      -0.00008187      -0.00088096 </v>
   <v>       0.00011332      -0.00006435      -0.00064886 </v>
   <v>       0.00002201       0.00043459       0.00018948 </v>
   <v>      -0.00010869      -0.00007144      -0.00073046 </v>
   <v>      -0.00014106      -0.00025962      -0.00107074 </v>
   <v>       0.00019104      -0.00008267      -0.00041805 </v>
   <v>       0.00001836      -0.00008742      -0.00102336 </v>
   <v>      -0.00005660      -0.00009271      -0.00065862 </v>
   <v>       0.00020020       0.00021708       0.00096044 </v>
   <v>      -0.00008644       0.00000890      -0.00023218 </v>
   <v>       0.00009655       0.00000819      -0.00044219 </v>
   <v>       0.00011484       0.00015569      -0.00010735 </v>
   <v>      -0.00021298      -0.00008922       0.00116387 </v>
   <v>       0.00012526       0.00036980       0.00189143 </v>
   <v>       0.00027969       0.00008910       0.00148793 </v>
   <v>       0.00036111       0.00020598       0.00181434 </v>
  </varray>
  <varray name="stress" >
   <v>      -2.06050740       0.00147697       0.00082267 </v>
   <v>       0.00147696      -2.06003510       0.00138614 </v>
   <v>       0.00082268       0.00138611      -2.16027375 </v>
  </varray>
  <energy>
   <i name="e_fr_energy">   -427.46743451 </i>
   <i name="e_wo_entrp">   -427.44085251 </i>
   <i name="e_0_energy">     -0.05316400 </i>
  </energy>
  <time name="totalsc"> 6977.43 6989.20</time>
  <eigenvalues>
   <array>
    <dimension dim="1">band</dimension>
    <dimension dim="2">kpoint</dimension>
    <dimension dim="3">spin</dimension>
    <field>eigene</field>
    <field>occ</field>
    <set>
     <set comment="spin 1">
      <set comment="kpoint 1">
       <r>  -18.6064    1.0000 </r>
       <r>  -18.5936    1.0000 </r>
       <r>  -18.5936    1.0000 </r>
       <r>  -18.5934    1.0000 </r>
       <r>   -9.4526    1.0000 </r>
       <r>   -8.9609    1.0000 </r>
       <r>   -8.1734    1.0000 </r>
       <r>   -7.6005    1.0000 </r>
       <r>   -7.5991    1.0000 </r>
       <r>   -7.5975    1.0000 </r>
       <r>   -7.5775    1.0000 </r>
       <r>   -7.5769    1.0000 </r>
       <r>   -7.5753    1.0000 </r>
       <r>   -7.2205    1.0000 </r>
       <r>   -7.2193    1.0000 </r>
       <r>   -7.2190    1.0000 </r>
       <r>   -7.1995    1.0000 </r>
       <r>   -7.1464    1.0000 </r>
       <r>   -7.1452    1.0000 </r>
       <r>   -7.1452    1.0000 </r>
       <r>   -6.6269    1.0000 </r>
       <r>   -6.6267    1.0000 </r>
       <r>   -6.6256    1.0000 </r>
       <r>   -6.4852    1.0000 </r>
       <r>   -6.4850    1.0000 </r>
       <r>   -6.4840    1.0000 </r>
       <r>   -6.2515    1.0000 </r>
       <r>   -5.9492    1.0000 </r>
       <r>   -5.9481    1.0000 </r>
       <r>   -5.9475    1.0000 </r>
       <r>   -5.7420    1.0000 </r>
       <r>   -5.7414    1.0000 </r>
       <r>   -5.7406    1.0000 </r>
       <r>   -5.6690    1.0000 </r>
       <r>   -5.6248    1.0000 </r>
       <r>   -5.6247    1.0000 </r>
       <r>   -5.4385    1.0000 </r>
       <r>   -5.4099    1.0000 </r>
       <r>   -5.4098    1.0000 </r>
       <r>   -5.4098    1.0000 </r>
       <r>   -5.3415    1.0000 </r>
       <r>   -5.3413    1.0000 </r>
       <r>   -5.3407    1.0000 </r>
       <r>   -5.3238    1.0000 </r>
       <r>   -5.2826    1.0000 </r>
       <r>   -5.2823    1.0000 </r>
       <r>   -5.2151    1.0000 </r>
       <r>   -5.2087    1.0000 </r>
       <r>   -5.2086    1.0000 </r>
       <r>   -5.2080    1.0000 </r>
       <r>   -5.1338    1.0000 </r>
       <r>   -5.1337    1.0000 </r>
       <r>   -5.1230    1.0000 </r>
       <r>   -5.0556    1.0000 </r>
       <r>   -5.0338    1.0000 </r>
       <r>   -5.0334    1.0000 </r>
       <r>   -5.0037    1.0000 </r>
       <r>   -5.0032    1.0000 </r>
       <r>   -5.0029    1.0000 </r>
       <r>   -4.9779    1.0000 </r>
       <r>   -4.9772    1.0000 </r>
       <r>   -4.9761    1.0000 </r>
       <r>   -4.9627    1.0000 </r>
       <r>   -4.9621    1.0000 </r>
       <r>   -4.9567    1.0000 </r>
       <r>   -4.9560    1.0000 </r>
       <r>   -4.9557    1.0000 </r>
       <r>   -4.9358    1.0000 </r>
       <r>   -4.8833    1.0000 </r>
       <r>   -4.8824    1.0000 </r>
       <r>   -4.8820    1.0000 </r>
       <r>   -4.8542    1.0000 </r>
       <r>   -4.8532    1.0000 </r>
       <r>   -4.8528    1.0000 </r>
       <r>   -4.8400    1.0000 </r>
       <r>   -4.8246    1.0000 </r>
       <r>   -4.8242    1.0000 </r>
       <r>   -4.8124    1.0000 </r>
       <r>   -4.8114    1.0000 </r>
       <r>   -4.8105    1.0000 </r>
       <r>   -4.7497    1.0000 </r>
       <r>   -4.7489    1.0000 </r>
       <r>   -4.7480    1.0000 </r>
       <r>   -4.7066    1.0000 </r>
       <r>   -4.7061    1.0000 </r>
       <r>   -4.7060    1.0000 </r>
       <r>   -4.7025    1.0000 </r>
       <r>   -4.6940    1.0000 </r>
       <r>   -4.6938    1.0000 </r>
       <r>   -4.6221    1.0000 </r>
       <r>   -4.6213    1.0000 </r>
       <r>   -4.6208    1.0000 </r>
       <r>   -4.5861    1.0000 </r>
       <r>   -4.5857    1.0000 </r>
       <r>   -4.5852    1.0000 </r>
       <r>   -4.5819    1.0000 </r>
       <r>   -4.5782    1.0000 </r>
       <r>   -4.5780    1.0000 </r>
       <r>   -4.5454    1.0000 </r>
       <r>   -4.5391    1.0000 </r>
       <r>   -4.5388    1.0000 </r>
       <r>   -4.5386    1.0000 </r>
       <r>   -4.5382    1.0000 </r>
       <r>   -4.5374    1.0000 </r>
       <r>   -4.5277    1.0000 </r>
       <r>   -4.5275    1.0000 </r>
       <r>   -4.5274    1.0000 </r>
       <r>   -4.5043    1.0000 </r>
       <r>   -4.5035    1.0000 </r>
       <r>   -4.5031    1.0000 </r>
       <r>   -4.4603    1.0000 </r>
       <r>   -4.4602    1.0000 </r>
       <r>   -4.4602    1.0000 </r>
       <r>   -4.4544    1.0000 </r>
       <r>   -4.4542    1.0000 </r>
       <r>   -4.4537    1.0000 </r>
       <r>   -4.4477    1.0000 </r>
       <r>   -4.4464    1.0000 </r>
       <r>   -4.4456    1.0000 </r>
       <r>   -4.4068    1.0000 </r>
       <r>   -4.4063    1.0000 </r>
       <r>   -4.4060    1.0000 </r>
       <r>   -4.3885    1.0000 </r>
       <r>   -4.3884    1.0000 </r>
       <r>   -4.3507    1.0000 </r>
       <r>   -4.3499    1.0000 </r>
       <r>   -4.3494    1.0000 </r>
       <r>   -4.3369    1.0000 </r>
       <r>   -4.2427    1.0000 </r>
       <r>   -4.2426    1.0000 </r>
       <r>   -4.2290    1.0000 </r>
       <r>   -4.2286    1.0000 </r>
       <r>   -4.2282    1.0000 </r>
       <r>   -4.2204    1.0000 </r>
       <r>   -4.2193    1.0000 </r>
       <r>   -4.2188    1.0000 </r>
       <r>   -4.2176    1.0000 </r>
       <r>   -4.2173    1.0000 </r>
       <r>   -4.2164    1.0000 </r>
       <r>   -4.2140    1.0000 </r>
       <r>   -4.2135    1.0000 </r>
       <r>   -4.2132    1.0000 </r>
       <r>   -4.2112    1.0000 </r>
       <r>   -4.2109    1.0000 </r>
       <r>   -4.2106    1.0000 </r>
       <r>   -4.1795    1.0000 </r>
       <r>   -4.1790    1.0000 </r>
       <r>   -4.1784    1.0000 </r>
       <r>   -4.0974    1.0000 </r>
       <r>   -4.0968    1.0000 </r>
       <r>   -4.0967    1.0000 </r>
       <r>   -4.0794    1.0000 </r>
       <r>   -4.0785    1.0000 </r>
       <r>   -4.0785    1.0000 </r>
       <r>   -4.0763    1.0000 </r>
       <r>   -4.0762    1.0000 </r>
       <r>   -4.0758    1.0000 </r>
       <r>   -4.0565    1.0000 </r>
       <r>   -4.0562    1.0000 </r>
       <r>   -4.0560    1.0000 </r>
       <r>   -4.0445    1.0000 </r>
       <r>   -4.0440    1.0000 </r>
       <r>   -4.0437    1.0000 </r>
       <r>   -4.0166    1.0000 </r>
       <r>   -4.0044    1.0000 </r>
       <r>   -4.0040    1.0000 </r>
       <r>   -4.0038    1.0000 </r>
       <r>   -3.9693    1.0000 </r>
       <r>   -3.9692    1.0000 </r>
       <r>   -3.9383    1.0000 </r>
       <r>   -3.9377    1.0000 </r>
       <r>   -3.9373    1.0000 </r>
       <r>   -3.9289    1.0000 </r>
       <r>   -3.9287    1.0000 </r>
       <r>   -3.9283    1.0000 </r>
       <r>   -3.9093    1.0000 </r>
       <r>   -3.9090    1.0000 </r>
       <r>   -3.9084    1.0000 </r>
       <r>   -3.8794    1.0000 </r>
       <r>   -3.8792    1.0000 </r>
       <r>   -3.8789    1.0000 </r>
       <r>   -3.8768    1.0000 </r>
       <r>   -3.8766    1.0000 </r>
       <r>   -3.8753    1.0000 </r>
       <r>   -3.8320    1.0000 </r>
       <r>   -3.8313    1.0000 </r>
       <r>   -3.8307    1.0000 </r>
       <r>   -3.8303    1.0000 </r>
       <r>   -3.8122    1.0000 </r>
       <r>   -3.8117    1.0000 </r>
       <r>   -3.8116    1.0000 </r>
       <r>   -3.7987    1.0000 </r>
       <r>   -3.7978    1.0000 </r>
       <r>   -3.7971    1.0000 </r>
       <r>   -3.7868    1.0000 </r>
       <r>   -3.7862    1.0000 </r>
       <r>   -3.7858    1.0000 </r>
       <r>   -3.7751    1.0000 </r>
       <r>   -3.7744    1.0000 </r>
       <r>   -3.7743    1.0000 </r>
       <r>   -3.7509    1.0000 </r>
       <r>   -3.7505    1.0000 </r>
       <r>   -3.7504    1.0000 </r>
       <r>   -3.7087    1.0000 </r>
       <r>   -3.7085    1.0000 </r>
       <r>   -3.7083    1.0000 </r>
       <r>   -3.7069    1.0000 </r>
       <r>   -3.7067    1.0000 </r>
       <r>   -3.7061    1.0000 </r>
       <r>   -3.6823    1.0000 </r>
       <r>   -3.6818    1.0000 </r>
       <r>   -3.6815    1.0000 </r>
       <r>   -3.6769    1.0000 </r>
       <r>   -3.6765    1.0000 </r>
       <r>   -3.6762    1.0000 </r>
       <r>   -3.6686    1.0000 </r>
       <r>   -3.6684    1.0000 </r>
       <r>   -3.6411    1.0000 </r>
       <r>   -3.6401    1.0000 </r>
       <r>   -3.6398    1.0000 </r>
       <r>   -3.6179    1.0000 </r>
       <r>   -3.6161    1.0000 </r>
       <r>   -3.6155    1.0000 </r>
       <r>   -3.6146    1.0000 </r>
       <r>   -3.6027    1.0000 </r>
       <r>   -3.6024    1.0000 </r>
       <r>   -3.6022    1.0000 </r>
       <r>   -3.6013    1.0000 </r>
       <r>   -3.6001    1.0000 </r>
       <r>   -3.5999    1.0000 </r>
       <r>   -3.5976    1.0000 </r>
       <r>   -3.5971    1.0000 </r>
       <r>   -3.5971    1.0000 </r>
       <r>   -3.5812    1.0000 </r>
       <r>   -3.5809    1.0000 </r>
       <r>   -3.5806    1.0000 </r>
       <r>   -3.5503    1.0000 </r>
       <r>   -3.5503    1.0000 </r>
       <r>   -3.5499    1.0000 </r>
       <r>   -3.5369    1.0000 </r>
       <r>   -3.5302    1.0000 </r>
       <r>   -3.5115    1.0000 </r>
       <r>   -3.5114    1.0000 </r>
       <r>   -3.4481    1.0000 </r>
       <r>   -3.4474    1.0000 </r>
       <r>   -3.4473    1.0000 </r>
       <r>   -3.4417    1.0000 </r>
       <r>   -3.4335    1.0000 </r>
       <r>   -3.4333    1.0000 </r>
       <r>   -3.4331    1.0000 </r>
       <r>   -3.4281    1.0000 </r>
       <r>   -3.4278    1.0000 </r>
       <r>   -3.4271    1.0000 </r>
       <r>   -3.4190    1.0000 </r>
       <r>   -3.4187    1.0000 </r>
       <r>   -3.4183    1.0000 </r>
       <r>   -3.4178    1.0000 </r>
       <r>   -3.4177    1.0000 </r>
       <r>   -3.4157    1.0000 </r>
       <r>   -3.4156    1.0000 </r>
       <r>   -3.4148    1.0000 </r>
       <r>   -3.4098    1.0000 </r>
       <r>   -3.3984    1.0000 </r>
       <r>   -3.3981    1.0000 </r>
       <r>   -3.3976    1.0000 </r>
       <r>   -3.3860    1.0000 </r>
       <r>   -3.3860    1.0000 </r>
       <r>   -3.3749    1.0000 </r>
       <r>   -3.3628    1.0000 </r>
       <r>   -3.3626    1.0000 </r>
       <r>   -3.3615    1.0000 </r>
       <r>   -3.3495    1.0000 </r>
       <r>   -3.3494    1.0000 </r>
       <r>   -3.3463    1.0000 </r>
       <r>   -3.3463    1.0000 </r>
       <r>   -3.3462    1.0000 </r>
       <r>   -3.3360    1.0000 </r>
       <r>   -3.3357    1.0000 </r>
       <r>   -3.3356    1.0000 </r>
       <r>   -3.3150    1.0000 </r>
       <r>   -3.3149    1.0000 </r>
       <r>   -3.3048    1.0000 </r>
       <r>   -3.3042    1.0000 </r>
       <r>   -3.3037    1.0000 </r>
[...]
       <r>   -14.5221     0.0000     8.0000 </r>
       <r>   -14.4280     0.0000     8.0000 </r>
       <r>   -14.3338     0.0000     8.0000 </r>
       <r>   -14.2396     0.0000     8.0000 </r>
       <r>   -14.1454     0.0000     8.0000 </r>
       <r>   -14.0512     0.0000     8.0000 </r>
       <r>   -13.9570     0.0000     8.0000 </r>
       <r>   -13.8628     0.0000     8.0000 </r>
       <r>   -13.7686     0.0000     8.0000 </r>
       <r>   -13.6745     0.0000     8.0000 </r>
       <r>   -13.5803     0.0000     8.0000 </r>
       <r>   -13.4861     0.0000     8.0000 </r>
       <r>   -13.3919     0.0000     8.0000 </r>
       <r>   -13.2977     0.0000     8.0000 </r>
       <r>   -13.2035     0.0000     8.0000 </r>
       <r>   -13.1093     0.0000     8.0000 </r>
       <r>   -13.0151     0.0000     8.0000 </r>
       <r>   -12.9210     0.0000     8.0000 </r>
       <r>   -12.8268     0.0000     8.0000 </r>
       <r>   -12.7326     0.0000     8.0000 </r>
       <r>   -12.6384     0.0000     8.0000 </r>
       <r>   -12.5442     0.0000     8.0000 </r>
       <r>   -12.4500     0.0000     8.0000 </r>
       <r>   -12.3558     0.0000     8.0000 </r>
       <r>   -12.2616     0.0000     8.0000 </r>
       <r>   -12.1675     0.0000     8.0000 </r>
       <r>   -12.0733     0.0000     8.0000 </r>
       <r>   -11.9791     0.0000     8.0000 </r>
       <r>   -11.8849     0.0000     8.0000 </r>
       <r>   -11.7907     0.0000     8.0000 </r>
       <r>   -11.6965     0.0000     8.0000 </r>
       <r>   -11.6023     0.0000     8.0000 </r>
       <r>   -11.5081     0.0000     8.0000 </r>
       <r>   -11.4140     0.0000     8.0000 </r>
       <r>   -11.3198     0.0000     8.0000 </r>
       <r>   -11.2256     0.0000     8.0000 </r>
       <r>   -11.1314     0.0000     8.0000 </r>
       <r>   -11.0372     0.0000     8.0000 </r>
       <r>   -10.9430     0.0000     8.0000 </r>
       <r>   -10.8488     0.0000     8.0000 </r>
       <r>   -10.7547     0.0000     8.0000 </r>
       <r>   -10.6605     0.0000     8.0000 </r>
       <r>   -10.5663     0.0000     8.0000 </r>
       <r>   -10.4721     0.0000     8.0000 </r>
       <r>   -10.3779     0.0000     8.0000 </r>
       <r>   -10.2837     0.0000     8.0000 </r>
       <r>   -10.1895     0.0000     8.0000 </r>
       <r>   -10.0953     0.0000     8.0000 </r>
       <r>   -10.0012     0.0000     8.0000 </r>
       <r>    -9.9070     0.0000     8.0000 </r>
       <r>    -9.8128     0.0000     8.0000 </r>
       <r>    -9.7186     0.0000     8.0000 </r>
       <r>    -9.6244     0.0000     8.0000 </r>
       <r>    -9.5302     0.0186     8.0018 </r>
       <r>    -9.4360     0.8933     8.0859 </r>
       <r>    -9.3418     3.2434     8.3914 </r>
       <r>    -9.2477     5.0477     8.8668 </r>
       <r>    -9.1535     0.2761     8.8928 </r>
       <r>    -9.0593     5.8298     9.4419 </r>
       <r>    -8.9651     6.2520    10.0308 </r>
       <r>    -8.8709     6.4974    10.6427 </r>
       <r>    -8.7767     6.1668    11.2236 </r>
       <r>    -8.6825     0.5715    11.2774 </r>
       <r>    -8.5883    15.4849    12.7359 </r>
       <r>    -8.4942    11.3265    13.8027 </r>
       <r>    -8.4000     6.2115    14.3877 </r>
       <r>    -8.3058     6.2087    14.9725 </r>
       <r>    -8.2116     0.8234    15.0501 </r>
       <r>    -8.1174    12.9427    16.2691 </r>
       <r>    -8.0232    14.4834    17.6333 </r>
       <r>    -7.9290    13.2627    18.8824 </r>
       <r>    -7.8348    19.6043    20.7289 </r>
       <r>    -7.7407     6.8900    21.3779 </r>
       <r>    -7.6465     6.0216    21.9450 </r>
       <r>    -7.5523    13.0666    23.1757 </r>
       <r>    -7.4581    15.7899    24.6629 </r>
       <r>    -7.3639    16.3895    26.2066 </r>
       <r>    -7.2697     8.8219    27.0375 </r>
       <r>    -7.1755    20.6262    28.9802 </r>
       <r>    -7.0814    16.2112    30.5071 </r>
       <r>    -6.9872    13.3008    31.7599 </r>
       <r>    -6.8930    16.6604    33.3291 </r>
       <r>    -6.7988    31.7639    36.3209 </r>
       <r>    -6.7046    15.2837    37.7604 </r>
       <r>    -6.6104    18.3595    39.4896 </r>
       <r>    -6.5162    13.4246    40.7540 </r>
       <r>    -6.4220    24.4131    43.0534 </r>
       <r>    -6.3279    23.6716    45.2830 </r>
       <r>    -6.2337    18.6558    47.0401 </r>
       <r>    -6.1395    46.7059    51.4392 </r>
       <r>    -6.0453    21.0238    53.4194 </r>
       <r>    -5.9511    45.8986    57.7425 </r>
       <r>    -5.8569    21.1546    59.7350 </r>
       <r>    -5.7627    20.5474    61.6703 </r>
       <r>    -5.6685    59.7279    67.2959 </r>
       <r>    -5.5744    86.9259    75.4832 </r>
       <r>    -5.4802    74.0601    82.4587 </r>
       <r>    -5.3860    60.6086    88.1673 </r>
       <r>    -5.2918    95.1554    97.1297 </r>
       <r>    -5.1976    89.2269   105.5337 </r>
       <r>    -5.1034   107.9150   115.6979 </r>
       <r>    -5.0092   119.4062   126.9445 </r>
       <r>    -4.9150   145.3245   140.6322 </r>
       <r>    -4.8209   127.6133   152.6517 </r>
       <r>    -4.7267   126.6681   164.5822 </r>
       <r>    -4.6325   166.0784   180.2247 </r>
       <r>    -4.5383   204.7128   199.5060 </r>
       <r>    -4.4441   241.0776   222.2125 </r>
       <r>    -4.3499   284.5790   249.0162 </r>
       <r>    -4.2557   253.8531   272.9259 </r>
       <r>    -4.1615   219.6052   293.6099 </r>
       <r>    -4.0674   206.6260   313.0714 </r>
       <r>    -3.9732   219.3453   333.7309 </r>
       <r>    -3.8790   272.8660   359.4314 </r>
       <r>    -3.7848   278.6359   385.6754 </r>
       <r>    -3.6906   321.6401   415.9698 </r>
       <r>    -3.5964   318.4839   445.9669 </r>
       <r>    -3.5022   325.0368   476.5812 </r>
       <r>    -3.4080   392.8959   513.5870 </r>
       <r>    -3.3139   477.3932   558.5513 </r>
       <r>    -3.2197   505.7713   606.1885 </r>
       <r>    -3.1255   438.8698   647.5244 </r>
       <r>    -3.0313   452.1008   690.1065 </r>
       <r>    -2.9371   325.6214   720.7759 </r>
       <r>    -2.8429   362.6190   754.9300 </r>
       <r>    -2.7487   347.1632   787.6283 </r>
       <r>    -2.6546   410.4367   826.2862 </r>
       <r>    -2.5604   409.5259   864.8583 </r>
       <r>    -2.4662   388.9459   901.4921 </r>
       <r>    -2.3720   429.4251   941.9384 </r>
       <r>    -2.2778   419.7375   981.4723 </r>
       <r>    -2.1836   440.5008  1022.9619 </r>
       <r>    -2.0894   530.2284  1072.9026 </r>
       <r>    -1.9952   616.1963  1130.9404 </r>
       <r>    -1.9011   434.7758  1171.8908 </r>
       <r>    -1.8069   162.2638  1187.1739 </r>
       <r>    -1.7127    69.5049  1193.7204 </r>
       <r>    -1.6185    52.2599  1198.6426 </r>
       <r>    -1.5243    58.6093  1204.1629 </r>
       <r>    -1.4301    59.2792  1209.7462 </r>
       <r>    -1.3359    89.6576  1218.1908 </r>
       <r>    -1.2417    59.3637  1223.7821 </r>
       <r>    -1.1476    35.9764  1227.1706 </r>
       <r>    -1.0534    11.6265  1228.2657 </r>
       <r>    -0.9592    47.7667  1232.7647 </r>
       <r>    -0.8650    37.9961  1236.3435 </r>
       <r>    -0.7708    43.9444  1240.4825 </r>
       <r>    -0.6766    46.9456  1244.9041 </r>
       <r>    -0.5824    58.2278  1250.3884 </r>
       <r>    -0.4882    20.2821  1252.2988 </r>
       <r>    -0.3941    34.8731  1255.5834 </r>
       <r>    -0.2999    37.5558  1259.1206 </r>
       <r>    -0.2057    41.1442  1262.9959 </r>
       <r>    -0.1115    23.6995  1265.2281 </r>
       <r>    -0.0173    35.0570  1268.5300 </r>
       <r>     0.0769    48.6953  1273.1165 </r>
       <r>     0.1711    42.5003  1277.1195 </r>
       <r>     0.2653    13.0151  1278.3453 </r>
       <r>     0.3594    25.5203  1280.7490 </r>
       <r>     0.4536    43.3504  1284.8321 </r>
       <r>     0.5478    34.0593  1288.0400 </r>
       <r>     0.6420    28.4902  1290.7234 </r>
       <r>     0.7362    54.2890  1295.8368 </r>
       <r>     0.8304    35.3821  1299.1693 </r>
       <r>     0.9246    31.4194  1302.1286 </r>
       <r>     1.0188    29.1145  1304.8708 </r>
       <r>     1.1129    29.0219  1307.6043 </r>
       <r>     1.2071    47.1973  1312.0497 </r>
       <r>     1.3013    19.5563  1313.8916 </r>
       <r>     1.3955    20.2247  1315.7965 </r>
       <r>     1.4897    37.2411  1319.3042 </r>
       <r>     1.5839    32.1220  1322.3297 </r>
       <r>     1.6781    27.9168  1324.9591 </r>
       <r>     1.7722    20.3622  1326.8769 </r>
       <r>     1.8664    41.4349  1330.7796 </r>
       <r>     1.9606    37.2106  1334.2843 </r>
       <r>     2.0548    39.4021  1337.9955 </r>
       <r>     2.1490    24.6389  1340.3162 </r>
       <r>     2.2432    37.9184  1343.8876 </r>
       <r>     2.3374    24.6604  1346.2103 </r>
       <r>     2.4316    22.4830  1348.3279 </r>
       <r>     2.5257    14.7983  1349.7217 </r>
       <r>     2.6199    11.7333  1350.8268 </r>
       <r>     2.7141    19.7048  1352.6828 </r>
       <r>     2.8083    32.5912  1355.7525 </r>
       <r>     2.9025    28.0905  1358.3982 </r>
       <r>     2.9967    27.1165  1360.9523 </r>
       <r>     3.0909    19.4890  1362.7879 </r>
       <r>     3.1851    23.3762  1364.9896 </r>
       <r>     3.2792    21.1183  1366.9787 </r>
       <r>     3.3734     8.7446  1367.8023 </r>
       <r>     3.4676    30.5950  1370.6840 </r>
       <r>     3.5618    31.9703  1373.6952 </r>
       <r>     3.6560    27.7984  1376.3134 </r>
       <r>     3.7502     7.1725  1376.9890 </r>
       <r>     3.8444    21.6865  1379.0316 </r>
       <r>     3.9386    44.3606  1383.2098 </r>
       <r>     4.0327    32.6381  1386.2839 </r>
       <r>     4.1269    41.9196  1390.2322 </r>
       <r>     4.2211    51.0178  1395.0374 </r>
       <r>     4.3153    35.2562  1398.3581 </r>
       <r>     4.4095    18.4827  1400.0989 </r>
       <r>     4.5037    23.0949  1402.2742 </r>
       <r>     4.5979    31.5554  1405.2463 </r>
       <r>     4.6921    38.0367  1408.8288 </r>
       <r>     4.7862    40.9879  1412.6894 </r>
       <r>     4.8804    47.7014  1417.1822 </r>
       <r>     4.9746    38.1739  1420.7777 </r>
       <r>     5.0688    40.1813  1424.5623 </r>
       <r>     5.1630    37.0557  1428.0525 </r>
       <r>     5.2572    28.7620  1430.7615 </r>
       <r>     5.3514    59.4895  1436.3646 </r>
       <r>     5.4456    37.1724  1439.8658 </r>
       <r>     5.5397    54.2604  1444.9764 </r>
       <r>     5.6339    33.9670  1448.1757 </r>
       <r>     5.7281    34.1546  1451.3926 </r>
       <r>     5.8223    33.9149  1454.5870 </r>
       <r>     5.9165    33.0223  1457.6972 </r>
       <r>     6.0107    61.5194  1463.4916 </r>
       <r>     6.1049    54.3206  1468.6079 </r>
       <r>     6.1990    44.6441  1472.8128 </r>
       <r>     6.2932    40.3978  1476.6177 </r>
       <r>     6.3874    36.3849  1480.0447 </r>
       <r>     6.4816    51.2667  1484.8734 </r>
       <r>     6.5758    42.8343  1488.9078 </r>
       <r>     6.6700    35.3058  1492.2332 </r>
       <r>     6.7642    37.2127  1495.7382 </r>
       <r>     6.8584    59.2807  1501.3216 </r>
       <r>     6.9525    48.9492  1505.9320 </r>
       <r>     7.0467    36.7482  1509.3932 </r>
       <r>     7.1409    26.7604  1511.9137 </r>
       <r>     7.2351     0.9159  1512.0000 </r>
       <r>     7.3293     0.0001  1512.0000 </r>
       <r>     7.4235     0.0000  1512.0000 </r>
       <r>     7.5177     0.0000  1512.0000 </r>
       <r>     7.6119     0.0000  1512.0000 </r>
       <r>     7.7060     0.0000  1512.0000 </r>
       <r>     7.8002     0.0000  1512.0000 </r>
       <r>     7.8944     0.0000  1512.0000 </r>
       <r>     7.9886     0.0000  1512.0000 </r>
       <r>     8.0828     0.0000  1512.0000 </r>
       <r>     8.1770     0.0000  1512.0000 </r>
       <r>     8.2712     0.0000  1512.0000 </r>
       <r>     8.3654     0.0000  1512.0000 </r>
      </set>
     </set>
    </array>
   </total>
  </dos>
 </calculation>
 <structure name="finalpos" >
  <crystal>
   <varray name="basis" >
    <v>      10.28518105       0.00000000       0.00000000 </v>
    <v>       5.14259052       8.90722807       0.00000000 </v>
    <v>       0.00000000       0.00000000      27.79016876 </v>
   </varray>
   <i name="volume">   2545.92553775 </i>
   <varray name="rec_basis" >
    <v>       0.09722726      -0.05613419       0.00000000 </v>
    <v>       0.00000000       0.11226837       0.00000000 </v>
    <v>       0.00000000       0.00000000       0.03598395 </v>
   </varray>
  </crystal>
  <varray name="positions" >
   <v>       0.00000000       0.00000000       0.22663990 </v>
   <v>       0.00000000       0.50000000       0.22663990 </v>
   <v>       0.50000000       0.00000000       0.22663990 </v>
   <v>       0.50000000       0.50000000       0.22663990 </v>
   <v>       0.00000000       0.25000000       0.22663990 </v>
   <v>       0.00000000       0.75000000       0.22663990 </v>
   <v>       0.50000000       0.25000000       0.22663990 </v>
   <v>       0.50000000       0.75000000       0.22663990 </v>
   <v>       0.25000000       0.00000000       0.22663990 </v>
   <v>       0.25000000       0.50000000       0.22663990 </v>
   <v>       0.75000000       0.00000000       0.22663990 </v>
   <v>       0.75000000       0.50000000       0.22663990 </v>
   <v>       0.25000000       0.25000000       0.22663990 </v>
   <v>       0.25000000       0.75000000       0.22663990 </v>
   <v>       0.75000000       0.25000000       0.22663990 </v>
   <v>       0.75000000       0.75000000       0.22663990 </v>
   <v>       0.16666666       0.16666666       0.30218653 </v>
   <v>       0.16666666       0.66666666       0.30218653 </v>
   <v>       0.66666666       0.16666666       0.30218653 </v>
   <v>       0.66666666       0.66666666       0.30218653 </v>
   <v>       0.16666666       0.41666666       0.30218653 </v>
   <v>       0.16666666       0.91666666       0.30218653 </v>
   <v>       0.66666666       0.41666666       0.30218653 </v>
   <v>       0.66666666       0.91666666       0.30218653 </v>
   <v>       0.41666666       0.16666666       0.30218653 </v>
   <v>       0.41666666       0.66666666       0.30218653 </v>
   <v>       0.91666666       0.16666666       0.30218653 </v>
   <v>       0.91666666       0.66666666       0.30218653 </v>
   <v>       0.41666666       0.41666666       0.30218653 </v>
   <v>       0.41666666       0.91666666       0.30218653 </v>
   <v>       0.91666666       0.41666666       0.30218653 </v>
   <v>       0.91666666       0.91666666       0.30218653 </v>
   <v>       0.08333333       0.08333333       0.37716320 </v>
   <v>       0.08333333       0.58333333       0.37716320 </v>
   <v>       0.58333333       0.08333333       0.37716320 </v>
   <v>       0.58333333       0.58333333       0.37716320 </v>
   <v>       0.08351614       0.33324190       0.37729758 </v>
   <v>       0.08351614       0.83324190       0.37729758 </v>
   <v>       0.58351614       0.33324190       0.37729758 </v>
   <v>       0.58351614       0.83324190       0.37729758 </v>
   <v>       0.33324190       0.08351614       0.37729758 </v>
   <v>       0.33324190       0.58351614       0.37729758 </v>
   <v>       0.83324190       0.08351614       0.37729758 </v>
   <v>       0.83324190       0.58351614       0.37729758 </v>
   <v>       0.33324190       0.33324190       0.37729758 </v>
   <v>       0.33324190       0.83324190       0.37729758 </v>
   <v>       0.83324190       0.33324190       0.37729758 </v>
   <v>       0.83324190       0.83324190       0.37729758 </v>
   <v>       0.00012997       0.00012997       0.45242342 </v>
   <v>       0.00012997       0.50012997       0.45242342 </v>
   <v>       0.50012997       0.00012997       0.45242342 </v>
   <v>       0.50012997       0.50012997       0.45242342 </v>
   <v>       0.00012997       0.24974005       0.45242342 </v>
   <v>       0.00012997       0.74974005       0.45242342 </v>
   <v>       0.50012997       0.24974005       0.45242342 </v>
   <v>       0.50012997       0.74974005       0.45242342 </v>
   <v>       0.24974005       0.00012997       0.45242342 </v>
   <v>       0.24974005       0.50012997       0.45242342 </v>
   <v>       0.74974005       0.00012997       0.45242342 </v>
   <v>       0.74974005       0.50012997       0.45242342 </v>
   <v>       0.25000000       0.25000000       0.45288750 </v>
   <v>       0.25000000       0.75000000       0.45288750 </v>
   <v>       0.75000000       0.25000000       0.45288750 </v>
   <v>       0.75000000       0.75000000       0.45288750 </v>
   <v>       0.16581213       0.16819370       0.52864795 </v>
   <v>       0.16660598       0.66660598       0.52813907 </v>
   <v>       0.66660598       0.16660598       0.52813907 </v>
   <v>       0.66660598       0.66660598       0.52813907 </v>
   <v>       0.16660598       0.41678801       0.52813907 </v>
   <v>       0.16660598       0.91678801       0.52813907 </v>
   <v>       0.66660598       0.41678801       0.52813907 </v>
   <v>       0.66660598       0.91678801       0.52813907 </v>
   <v>       0.41678801       0.16660598       0.52813907 </v>
   <v>       0.41678801       0.66660598       0.52813907 </v>
   <v>       0.91678801       0.16660598       0.52813907 </v>
   <v>       0.91678801       0.66660598       0.52813907 </v>
   <v>       0.41666666       0.41666666       0.52741939 </v>
   <v>       0.41666666       0.91666666       0.52741939 </v>
   <v>       0.91666666       0.41666666       0.52741939 </v>
   <v>       0.91666666       0.91666666       0.52741939 </v>
   <v>       0.08333333       0.08333333       0.60253339 </v>
   <v>       0.08333333       0.58333333       0.60253339 </v>
   <v>       0.58333333       0.08333333       0.60253339 </v>
   <v>       0.58333333       0.58333333       0.60253339 </v>
   <v>       0.08130935       0.33434529       0.60320464 </v>
   <v>       0.08130935       0.83434529       0.60320464 </v>
   <v>       0.58130935       0.33434529       0.60320464 </v>
   <v>       0.58130935       0.83434529       0.60320464 </v>
   <v>       0.33434529       0.08130935       0.60320464 </v>
   <v>       0.33434529       0.58130935       0.60320464 </v>
   <v>       0.83434529       0.08130935       0.60320464 </v>
   <v>       0.83434529       0.58130935       0.60320464 </v>
   <v>       0.33434529       0.33434529       0.60320464 </v>
   <v>       0.33434529       0.83434529       0.60320464 </v>
   <v>       0.83434529       0.33434529       0.60320464 </v>
   <v>       0.83434529       0.83434529       0.60320464 </v>
   <v>       0.49714648       0.49714648       0.68057248 </v>
   <v>       0.49714648       0.99714648       0.68057248 </v>
   <v>       0.99714648       0.49714648       0.68057248 </v>
   <v>       0.99714648       0.99714648       0.68057248 </v>
   <v>       0.49714648       0.25570704       0.68057248 </v>
   <v>       0.49714648       0.75570704       0.68057248 </v>
   <v>       0.99714648       0.25570704       0.68057248 </v>
   <v>       0.99714648       0.75570704       0.68057248 </v>
   <v>       0.25570704       0.49714648       0.68057248 </v>
   <v>       0.25570704       0.99714648       0.68057248 </v>
   <v>       0.75570704       0.49714648       0.68057248 </v>
   <v>       0.75570704       0.99714648       0.68057248 </v>
   <v>       0.25000000       0.25000000       0.67480871 </v>
   <v>       0.25000000       0.75000000       0.67480871 </v>
   <v>       0.75000000       0.25000000       0.67480871 </v>
   <v>       0.75000000       0.75000000       0.67480871 </v>
   <v>       0.08333333       0.08333333       0.72043888 </v>
   <v>       0.08333333       0.58333333       0.72043888 </v>
   <v>       0.58333333       0.08333333       0.72043888 </v>
   <v>       0.58333333       0.58333333       0.72043888 </v>
  </varray>
 </structure>
</modeling>
