<?xml version="1.0" encoding="ISO-8859-1"?>
<modeling>
 <generator>
  <i name="program" type="string">vasp </i>
  <i name="version" type="string">5.4.4.18Apr17-6-g9f103f2a35  </i>
  <i name="subversion" type="string">(build Feb 09 2021 16:27:36) complex            parallel </i>
  <i name="platform" type="string">IFC15_impi </i>
  <i name="date" type="string">2021 04 29 </i>
  <i name="time" type="string">03:21:05 </i>
 </generator>
 <incar>
  <i type="int" name="ISTART">     0</i>
  <i type="string" name="PREC">a</i>
  <i type="logical" name="ADDGRID"> T  </i>
  <i type="int" name="NELM">   300</i>
  <i type="int" name="NELMIN">     5</i>
  <i type="int" name="IBRION">    -1</i>
  <i name="EDIFF">      0.00000100</i>
  <i name="ENCUT">    500.00000000</i>
  <i type="logical" name="LREAL"> F  </i>
  <i type="int" name="ISMEAR">     0</i>
  <i name="SIGMA">      0.05000000</i>
  <i type="logical" name="LWAVE"> F  </i>
  <i type="logical" name="LCHARG"> F  </i>
  <v type="int" name="KPOINT_BSE">    -1     0     0     0</v>
  <i type="int" name="NELM">   300</i>
 </incar>
 <structure name="primitive_cell" >
  <crystal>
   <varray name="basis" >
    <v>      10.28518105       0.00000000       0.00000000 </v>
    <v>       5.14259052       8.90722807       0.00000000 </v>
    <v>       0.00000000       0.00000000      27.79016876 </v>
   </varray>
   <i name="volume">   2545.92553775 </i>
   <varray name="rec_basis" >
    <v>       0.09722726      -0.05613419       0.00000000 </v>
    <v>       0.00000000       0.11226837       0.00000000 </v>
    <v>       0.00000000       0.00000000       0.03598395 </v>
   </varray>
  </crystal>
  <varray name="positions" >
   <v>       0.00000000       0.00000000       0.22663990 </v>
   <v>       0.16666666      -0.08333334       0.30218653 </v>
   <v>      -0.08333334       0.16666666       0.30218653 </v>
   <v>       0.25000000       0.00000000       0.22663990 </v>
   <v>       0.00000000      -0.25000000       0.22663990 </v>
   <v>       0.25000000      -0.25000000       0.22663990 </v>
   <v>      -0.25000000       0.25000000       0.22663990 </v>
   <v>       0.00000000       0.25000000       0.22663990 </v>
   <v>      -0.25000000       0.00000000       0.22663990 </v>
   <v>      -0.08333334      -0.08333334       0.30218653 </v>
   <v>       0.16666666       0.16666666       0.30218653 </v>
   <v>       0.16666666      -0.33333334       0.30218653 </v>
   <v>      -0.33333334       0.16666666       0.30218653 </v>
   <v>       0.08333333       0.08333333       0.37716320 </v>
   <v>       0.08351614      -0.16675810       0.37729758 </v>
   <v>      -0.16675810       0.08351614       0.37729758 </v>
   <v>       0.41666666      -0.08333334       0.30218653 </v>
   <v>      -0.08333334       0.41666666       0.30218653 </v>
   <v>      -0.33333334       0.41666666       0.30218653 </v>
   <v>       0.41666666      -0.33333334       0.30218653 </v>
   <v>      -0.50000000       0.25000000       0.22663990 </v>
   <v>       0.25000000       0.25000000       0.22663990 </v>
   <v>       0.25000000      -0.50000000       0.22663990 </v>
   <v>      -0.25000000      -0.50000000       0.22663990 </v>
   <v>      -0.25000000      -0.25000000       0.22663990 </v>
   <v>      -0.50000000      -0.25000000       0.22663990 </v>
   <v>      -0.08333334      -0.33333334       0.30218653 </v>
   <v>      -0.33333334      -0.08333334       0.30218653 </v>
   <v>       0.33324190      -0.16675810       0.37729758 </v>
   <v>      -0.16675810       0.33324190       0.37729758 </v>
   <v>      -0.16675810      -0.16675810       0.37729758 </v>
   <v>       0.00000000      -0.50000000       0.22663990 </v>
   <v>      -0.50000000      -0.50000000       0.22663990 </v>
   <v>      -0.50000000       0.00000000       0.22663990 </v>
   <v>      -0.41666667       0.08333333       0.37716320 </v>
   <v>       0.08333333      -0.41666667       0.37716320 </v>
   <v>       0.33324190      -0.41648386       0.37729758 </v>
   <v>      -0.41648386       0.33324190       0.37729758 </v>
   <v>       0.33324190       0.08351614       0.37729758 </v>
   <v>       0.08351614       0.33324190       0.37729758 </v>
   <v>       0.16666666       0.41666666       0.30218653 </v>
   <v>       0.41666666       0.16666666       0.30218653 </v>
   <v>       0.41666666       0.41666666       0.30218653 </v>
   <v>       0.00012997       0.00012997       0.45242342 </v>
   <v>      -0.33333334      -0.33333334       0.30218653 </v>
   <v>       0.00012997       0.24974005       0.45242342 </v>
   <v>       0.24974005       0.00012997       0.45242342 </v>
   <v>      -0.25025995       0.00012997       0.45242342 </v>
   <v>       0.00012997      -0.25025995       0.45242342 </v>
   <v>       0.25000000      -0.25000000       0.45288750 </v>
   <v>      -0.25000000       0.25000000       0.45288750 </v>
   <v>      -0.41666667      -0.41666667       0.37716320 </v>
   <v>      -0.41648386      -0.16675810       0.37729758 </v>
   <v>      -0.16675810      -0.41648386       0.37729758 </v>
   <v>       0.33324190       0.33324190       0.37729758 </v>
   <v>       0.24974005      -0.49987003       0.45242342 </v>
   <v>      -0.49987003       0.24974005       0.45242342 </v>
   <v>      -0.49987003      -0.25025995       0.45242342 </v>
   <v>      -0.25025995      -0.49987003       0.45242342 </v>
   <v>       0.25000000       0.25000000       0.45288750 </v>
   <v>      -0.25000000      -0.25000000       0.45288750 </v>
   <v>       0.00012997      -0.49987003       0.45242342 </v>
   <v>      -0.49987003       0.00012997       0.45242342 </v>
   <v>      -0.49987003      -0.49987003       0.45242342 </v>
   <v>      -0.08333334      -0.08333334      -0.47258061 </v>
   <v>      -0.08321199       0.16660598      -0.47186093 </v>
   <v>       0.16660598      -0.08321199      -0.47186093 </v>
   <v>       0.16660598       0.16660598      -0.47186093 </v>
   <v>      -0.33339402       0.16660598      -0.47186093 </v>
   <v>       0.16660598      -0.33339402      -0.47186093 </v>
   <v>       0.41666666      -0.08333334      -0.47258061 </v>
   <v>      -0.08333334       0.41666666      -0.47258061 </v>
   <v>      -0.33339402      -0.08321199      -0.47186093 </v>
   <v>      -0.08321199      -0.33339402      -0.47186093 </v>
   <v>      -0.33339402       0.41678801      -0.47186093 </v>
   <v>       0.41678801      -0.33339402      -0.47186093 </v>
   <v>       0.41529166       0.41666666      -0.47308950 </v>
   <v>       0.16660598       0.41678801      -0.47186093 </v>
   <v>       0.41678801       0.16660598      -0.47186093 </v>
   <v>      -0.33339402      -0.33339402      -0.47186093 </v>
   <v>       0.08333333       0.08333333      -0.39746661 </v>
   <v>      -0.16565471       0.08130935      -0.39679536 </v>
   <v>       0.08130935      -0.16565471      -0.39679536 </v>
   <v>      -0.16565471      -0.16565471      -0.39679536 </v>
   <v>      -0.16565471       0.33434529      -0.39679536 </v>
   <v>       0.33434529      -0.16565471      -0.39679536 </v>
   <v>      -0.41666667       0.08333333      -0.39746661 </v>
   <v>       0.08333333      -0.41666667      -0.39746661 </v>
   <v>       0.08130935       0.33434529      -0.39679536 </v>
   <v>       0.33434529       0.08130935      -0.39679536 </v>
   <v>       0.33434529      -0.41869065      -0.39679536 </v>
   <v>      -0.41869065       0.33434529      -0.39679536 </v>
   <v>      -0.41666667      -0.41666667      -0.39746661 </v>
   <v>      -0.41869065      -0.16565471      -0.39679536 </v>
   <v>      -0.16565471      -0.41869065      -0.39679536 </v>
   <v>       0.33434529       0.33434529      -0.39679536 </v>
   <v>      -0.00285352      -0.00285352      -0.31942752 </v>
   <v>       0.25000000      -0.25000000      -0.32519129 </v>
   <v>      -0.25000000       0.25000000      -0.32519129 </v>
   <v>      -0.24429296      -0.00285352      -0.31942752 </v>
   <v>      -0.00285352      -0.24429296      -0.31942752 </v>
   <v>      -0.00285352       0.25570704      -0.31942752 </v>
   <v>       0.25570704      -0.00285352      -0.31942752 </v>
   <v>       0.25000000       0.25000000      -0.32519129 </v>
   <v>      -0.25000000      -0.25000000      -0.32519129 </v>
   <v>       0.49714648      -0.24429296      -0.31942752 </v>
   <v>      -0.24429296       0.49714648      -0.31942752 </v>
   <v>       0.25570704       0.49714648      -0.31942752 </v>
   <v>       0.49714648       0.25570704      -0.31942752 </v>
   <v>      -0.00285352       0.49714648      -0.31942752 </v>
   <v>       0.49714648      -0.00285352      -0.31942752 </v>
   <v>       0.49714648       0.49714648      -0.31942752 </v>
   <v>       0.08333333       0.08333333      -0.27956112 </v>
   <v>      -0.41666667       0.08333333      -0.27956112 </v>
   <v>       0.08333333      -0.41666667      -0.27956112 </v>
   <v>      -0.41666667      -0.41666667      -0.27956112 </v>
  </varray>
 </structure>
 <varray name="primitive_index" >
  <v type="int" >        1 </v>
  <v type="int" >       22 </v>
  <v type="int" >       27 </v>
  <v type="int" >        9 </v>
  <v type="int" >        6 </v>
  <v type="int" >       14 </v>
  <v type="int" >       15 </v>
  <v type="int" >        5 </v>
  <v type="int" >       11 </v>
  <v type="int" >       32 </v>
  <v type="int" >       17 </v>
  <v type="int" >       18 </v>
  <v type="int" >       19 </v>
  <v type="int" >       33 </v>
  <v type="int" >       38 </v>
  <v type="int" >       43 </v>
  <v type="int" >       30 </v>
  <v type="int" >       31 </v>
  <v type="int" >       23 </v>
  <v type="int" >       26 </v>
  <v type="int" >        7 </v>
  <v type="int" >       13 </v>
  <v type="int" >       10 </v>
  <v type="int" >       12 </v>
  <v type="int" >       16 </v>
  <v type="int" >        8 </v>
  <v type="int" >       28 </v>
  <v type="int" >       24 </v>
  <v type="int" >       46 </v>
  <v type="int" >       47 </v>
  <v type="int" >       48 </v>
  <v type="int" >        2 </v>
  <v type="int" >        4 </v>
  <v type="int" >        3 </v>
  <v type="int" >       35 </v>
  <v type="int" >       34 </v>
  <v type="int" >       42 </v>
  <v type="int" >       39 </v>
  <v type="int" >       41 </v>
  <v type="int" >       37 </v>
  <v type="int" >       21 </v>
  <v type="int" >       25 </v>
  <v type="int" >       29 </v>
  <v type="int" >       49 </v>
  <v type="int" >       20 </v>
  <v type="int" >       53 </v>
  <v type="int" >       57 </v>
  <v type="int" >       59 </v>
  <v type="int" >       54 </v>
  <v type="int" >       62 </v>
  <v type="int" >       63 </v>
  <v type="int" >       36 </v>
  <v type="int" >       40 </v>
  <v type="int" >       44 </v>
  <v type="int" >       45 </v>
  <v type="int" >       58 </v>
  <v type="int" >       55 </v>
  <v type="int" >       56 </v>
  <v type="int" >       60 </v>
  <v type="int" >       61 </v>
  <v type="int" >       64 </v>
  <v type="int" >       50 </v>
  <v type="int" >       51 </v>
  <v type="int" >       52 </v>
  <v type="int" >       80 </v>
  <v type="int" >       75 </v>
  <v type="int" >       70 </v>
  <v type="int" >       65 </v>
  <v type="int" >       67 </v>
  <v type="int" >       66 </v>
  <v type="int" >       78 </v>
  <v type="int" >       79 </v>
  <v type="int" >       72 </v>
  <v type="int" >       76 </v>
  <v type="int" >       71 </v>
  <v type="int" >       74 </v>
  <v type="int" >       77 </v>
  <v type="int" >       69 </v>
  <v type="int" >       73 </v>
  <v type="int" >       68 </v>
  <v type="int" >       81 </v>
  <v type="int" >       91 </v>
  <v type="int" >       86 </v>
  <v type="int" >       96 </v>
  <v type="int" >       95 </v>
  <v type="int" >       94 </v>
  <v type="int" >       83 </v>
  <v type="int" >       82 </v>
  <v type="int" >       85 </v>
  <v type="int" >       89 </v>
  <v type="int" >       90 </v>
  <v type="int" >       87 </v>
  <v type="int" >       84 </v>
  <v type="int" >       88 </v>
  <v type="int" >       92 </v>
  <v type="int" >       93 </v>
  <v type="int" >      100 </v>
  <v type="int" >      110 </v>
  <v type="int" >      111 </v>
  <v type="int" >      108 </v>
  <v type="int" >      104 </v>
  <v type="int" >      103 </v>
  <v type="int" >      106 </v>
  <v type="int" >      109 </v>
  <v type="int" >      112 </v>
  <v type="int" >      102 </v>
  <v type="int" >      107 </v>
  <v type="int" >      105 </v>
  <v type="int" >      101 </v>
  <v type="int" >       99 </v>
  <v type="int" >       98 </v>
  <v type="int" >       97 </v>
  <v type="int" >      113 </v>
  <v type="int" >      115 </v>
  <v type="int" >      114 </v>
  <v type="int" >      116 </v>
 </varray>
 <kpoints>
  <generation param="Gamma">
   <v type="int" name="divisions">       4        4        1 </v>
   <v name="usershift">      0.00000000       0.00000000       0.00000000 </v>
   <v name="genvec1">      0.25000000      -0.00000000       0.00000000 </v>
   <v name="genvec2">      0.00000000       0.25000000       0.00000000 </v>
   <v name="genvec3">      0.00000000       0.00000000       1.00000000 </v>
   <v name="shift">      0.00000000       0.00000000       0.00000000 </v>
  </generation>
  <varray name="kpointlist" >
   <v>       0.00000000       0.00000000       0.00000000 </v>
   <v>       0.25000000      -0.00000000       0.00000000 </v>
   <v>       0.50000000      -0.00000000       0.00000000 </v>
   <v>       0.00000000       0.25000000       0.00000000 </v>
   <v>       0.25000000       0.25000000       0.00000000 </v>
   <v>       0.50000000       0.25000000       0.00000000 </v>
   <v>      -0.25000000       0.25000000       0.00000000 </v>
   <v>       0.00000000       0.50000000       0.00000000 </v>
   <v>       0.25000000       0.50000000       0.00000000 </v>
   <v>       0.50000000       0.50000000       0.00000000 </v>
  </varray>
  <varray name="weights" >
   <v>       0.06250000 </v>
   <v>       0.12500000 </v>
   <v>       0.06250000 </v>
   <v>       0.12500000 </v>
   <v>       0.12500000 </v>
   <v>       0.12500000 </v>
   <v>       0.12500000 </v>
   <v>       0.06250000 </v>
   <v>       0.12500000 </v>
   <v>       0.06250000 </v>
  </varray>
 </kpoints>
 <parameters>
  <separator name="general" >
   <i type="string" name="SYSTEM">unknown system</i>
   <i type="logical" name="LCOMPAT"> F  </i>
  </separator>
  <separator name="electronic" >
   <i type="string" name="PREC">a</i>
   <i name="ENMAX">    500.00000000</i>
   <i name="ENAUG">    605.39200000</i>
   <i name="EDIFF">      0.00000100</i>
   <i type="int" name="IALGO">    38</i>
   <i type="int" name="IWAVPR">    10</i>
   <i type="int" name="NBANDS">   756</i>
   <i name="NELECT">   1256.00000000</i>
   <i type="int" name="TURBO">     0</i>
   <i type="int" name="IRESTART">     0</i>
   <i type="int" name="NREBOOT">     0</i>
   <i type="int" name="NMIN">     0</i>
   <i name="EREF">      0.00000000</i>
   <separator name="electronic smearing" >
    <i type="int" name="ISMEAR">     0</i>
    <i name="SIGMA">      0.05000000</i>
    <i name="KSPACING">      0.50000000</i>
    <i type="logical" name="KGAMMA"> T  </i>
   </separator>
   <separator name="electronic projectors" >
    <i type="logical" name="LREAL"> F  </i>
    <v name="ROPT">      0.00000000      0.00000000</v>
    <i type="int" name="LMAXPAW">  -100</i>
    <i type="int" name="LMAXMIX">     2</i>
    <i type="logical" name="NLSPLINE"> F  </i>
   </separator>
   <separator name="electronic startup" >
    <i type="int" name="ISTART">     0</i>
    <i type="int" name="ICHARG">     2</i>
    <i type="int" name="INIWAV">     1</i>
   </separator>
   <separator name="electronic spin" >
    <i type="int" name="ISPIN">     1</i>
    <i type="logical" name="LNONCOLLINEAR"> F  </i>
    <v name="MAGMOM">      1.00000000      1.00000000      1.00000000      1.00000000      1.00000000      1.00000000      1.00000000      1.00000000      1.00000000      1.00000000      1.00000000      1.00000000      1.00000000      1.00000000      1.00000000      1.00000000      1.00000000      1.00000000      1.00000000      1.00000000
      1.00000000      1.00000000      1.00000000      1.00000000      1.00000000      1.00000000      1.00000000      1.00000000      1.00000000      1.00000000      1.00000000      1.00000000      1.00000000      1.00000000      1.00000000      1.00000000      1.00000000      1.00000000      1.00000000      1.00000000
      1.00000000      1.00000000      1.00000000      1.00000000      1.00000000      1.00000000      1.00000000      1.00000000      1.00000000      1.00000000      1.00000000      1.00000000      1.00000000      1.00000000      1.00000000      1.00000000      1.00000000      1.00000000      1.00000000      1.00000000
      1.00000000      1.00000000      1.00000000      1.00000000      1.00000000      1.00000000      1.00000000      1.00000000      1.00000000      1.00000000      1.00000000      1.00000000      1.00000000      1.00000000      1.00000000      1.00000000      1.00000000      1.00000000      1.00000000      1.00000000
      1.00000000      1.00000000      1.00000000      1.00000000      1.00000000      1.00000000      1.00000000      1.00000000      1.00000000      1.00000000      1.00000000      1.00000000      1.00000000      1.00000000      1.00000000      1.00000000      1.00000000      1.00000000      1.00000000      1.00000000
      1.00000000      1.00000000      1.00000000      1.00000000      1.00000000      1.00000000      1.00000000      1.00000000      1.00000000      1.00000000      1.00000000      1.00000000      1.00000000      1.00000000      1.00000000      1.00000000</v>
    <i name="NUPDOWN">     -1.00000000</i>
    <i type="logical" name="LSORBIT"> F  </i>
    <v name="SAXIS">      0.00000000      0.00000000      1.00000000</v>
    <i type="logical" name="LSPIRAL"> F  </i>
    <v name="QSPIRAL">      0.00000000      0.00000000      0.00000000</v>
    <i type="logical" name="LZEROZ"> F  </i>
   </separator>
   <separator name="electronic exchange-correlation" >
    <i type="logical" name="LASPH"> F  </i>
    <i type="logical" name="LMETAGGA"> F  </i>
   </separator>
   <separator name="electronic convergence" >
    <i type="int" name="NELM">   300</i>
    <i type="int" name="NELMDL">    -5</i>
    <i type="int" name="NELMIN">     5</i>
    <i name="ENINI">    500.00000000</i>
    <separator name="electronic convergence detail" >
     <i type="logical" name="LDIAG"> T  </i>
     <i type="logical" name="LSUBROT"> F  </i>
     <i name="WEIMIN">      0.00000000</i>
     <i name="EBREAK">      0.00000000</i>
     <i name="DEPER">      0.30000000</i>
     <i type="int" name="NRMM">     4</i>
     <i name="TIME">      0.40000000</i>
    </separator>
   </separator>
   <separator name="electronic mixer" >
    <i name="AMIX">      0.40000000</i>
    <i name="BMIX">      1.00000000</i>
    <i name="AMIN">      0.10000000</i>
    <i name="AMIX_MAG">      1.60000000</i>
    <i name="BMIX_MAG">      1.00000000</i>
    <separator name="electronic mixer details" >
     <i type="int" name="IMIX">     4</i>
     <i type="logical" name="MIXFIRST"> F  </i>
     <i type="int" name="MAXMIX">   -45</i>
     <i name="WC">    100.00000000</i>
     <i type="int" name="INIMIX">     1</i>
     <i type="int" name="MIXPRE">     1</i>
     <i type="int" name="MREMOVE">     5</i>
    </separator>
   </separator>
   <separator name="electronic dipolcorrection" >
    <i type="logical" name="LDIPOL"> F  </i>
    <i type="logical" name="LMONO"> F  </i>
    <i type="int" name="IDIPOL">     0</i>
    <i name="EPSILON">      1.00000000</i>
    <v name="DIPOL">   -100.00000000   -100.00000000   -100.00000000</v>
    <i name="EFIELD">      0.00000000</i>
   </separator>
  </separator>
  <separator name="grids" >
   <i type="int" name="NGX">    80</i>
   <i type="int" name="NGY">    80</i>
   <i type="int" name="NGZ">   210</i>
   <i type="int" name="NGXF">   160</i>
   <i type="int" name="NGYF">   160</i>
   <i type="int" name="NGZF">   420</i>
   <i type="logical" name="ADDGRID"> T  </i>
  </separator>
  <separator name="ionic" >
   <i type="int" name="NSW">     0</i>
   <i type="int" name="IBRION">    -1</i>
   <i type="int" name="MDALGO">     0</i>
   <i type="int" name="ISIF">     2</i>
   <i name="PSTRESS">      0.00000000</i>
   <i name="EDIFFG">      0.00001000</i>
   <i type="int" name="NFREE">     0</i>
   <i name="POTIM">      0.50000000</i>
   <i name="SMASS">     -3.00000000</i>
   <i name="SCALEE">      1.00000000</i>
  </separator>
  <separator name="ionic md" >
   <i name="TEBEG">      0.00010000</i>
   <i name="TEEND">      0.00010000</i>
   <i type="int" name="NBLOCK">     1</i>
   <i type="int" name="KBLOCK">     1</i>
   <i type="int" name="NPACO">   256</i>
   <i name="APACO">     16.00000000</i>
  </separator>
  <separator name="symmetry" >
   <i type="int" name="ISYM">     2</i>
   <i name="SYMPREC">      0.00001000</i>
  </separator>
  <separator name="dos" >
   <i type="int" name="LORBIT">     0</i>
   <v name="RWIGS">     -1.00000000     -1.00000000</v>
   <i type="int" name="NEDOS">   301</i>
   <i name="EMIN">     10.00000000</i>
   <i name="EMAX">    -10.00000000</i>
   <i name="EFERMI">      0.00000000</i>
  </separator>
  <separator name="writing" >
   <i type="int" name="NWRITE">     2</i>
   <i type="logical" name="LWAVE"> F  </i>
   <i type="logical" name="LDOWNSAMPLE"> F  </i>
   <i type="logical" name="LCHARG"> F  </i>
   <i type="logical" name="LPARD"> F  </i>
   <i type="logical" name="LVTOT"> F  </i>
   <i type="logical" name="LVHAR"> F  </i>
   <i type="logical" name="LELF"> F  </i>
   <i type="logical" name="LOPTICS"> F  </i>
   <v name="STM">      0.00000000      0.00000000      0.00000000      0.00000000      0.00000000      0.00000000      0.00000000</v>
  </separator>
  <separator name="performance" >
   <i type="int" name="NPAR">     4</i>
   <i type="int" name="NSIM">     4</i>
   <i type="int" name="NBLK">    -1</i>
   <i type="logical" name="LPLANE"> T  </i>
   <i type="logical" name="LSCALAPACK"> F  </i>
   <i type="logical" name="LSCAAWARE"> F  </i>
   <i type="logical" name="LSCALU"> F  </i>
   <i type="logical" name="LASYNC"> F  </i>
   <i type="logical" name="LORBITALREAL"> F  </i>
  </separator>
  <separator name="miscellaneous" >
   <i type="int" name="IDIOT">     3</i>
   <i type="int" name="ISPECIAL">     0</i>
   <i type="logical" name="LMUSIC"> F  </i>
   <v name="POMASS">     63.54600000     16.00000000</v>
   <v name="DARWINR">      0.00000000      0.00000000</v>
   <v name="DARWINV">      1.00000000      1.00000000</v>
   <i type="logical" name="LCORR"> T  </i>
  </separator>
  <i type="logical" name="GGA_COMPAT"> T  </i>
  <i type="logical" name="LBERRY"> F  </i>
  <i type="int" name="ICORELEVEL">     0</i>
  <i type="logical" name="LDAU"> F  </i>
  <i type="int" name="I_CONSTRAINED_M">     0</i>
  <separator name="electronic exchange-correlation" >
   <i type="string" name="GGA">--</i>
   <i type="int" name="VOSKOWN">     0</i>
   <i type="logical" name="LHFCALC"> F  </i>
   <i type="string" name="PRECFOCK"></i>
   <i type="logical" name="LSYMGRAD"> F  </i>
   <i type="logical" name="LHFONE"> F  </i>
   <i type="logical" name="LRHFCALC"> F  </i>
   <i type="logical" name="LTHOMAS"> F  </i>
   <i type="logical" name="LMODELHF"> F  </i>
   <i name="ENCUT4O">     -1.00000000</i>
   <i type="int" name="EXXOEP">     0</i>
   <i type="int" name="FOURORBIT">     0</i>
   <i name="AEXX">      0.00000000</i>
   <i name="HFALPHA">      0.00000000</i>
   <i name="MCALPHA">      0.00000000</i>
   <i name="ALDAX">      1.00000000</i>
   <i name="AGGAX">      1.00000000</i>
   <i name="ALDAC">      1.00000000</i>
   <i name="AGGAC">      1.00000000</i>
   <i type="int" name="NKREDX">     1</i>
   <i type="int" name="NKREDY">     1</i>
   <i type="int" name="NKREDZ">     1</i>
   <i type="logical" name="SHIFTRED"> F  </i>
   <i type="logical" name="ODDONLY"> F  </i>
   <i type="logical" name="EVENONLY"> F  </i>
   <i type="int" name="LMAXFOCK">     0</i>
   <i type="int" name="NMAXFOCKAE">     0</i>
   <i type="logical" name="LFOCKAEDFT"> F  </i>
   <i name="HFSCREEN">      0.00000000</i>
   <i name="HFSCREENC">      0.00000000</i>
   <i type="int" name="NBANDSGWLOW">     0</i>
  </separator>
  <separator name="vdW DFT" >
   <i type="logical" name="LUSE_VDW"> F  </i>
   <i name="Zab_VDW">     -0.84910000</i>
   <i name="PARAM1">      0.12340000</i>
   <i name="PARAM2">      1.00000000</i>
   <i name="PARAM3">      0.00000000</i>
  </separator>
  <separator name="model GW" >
   <i type="int" name="MODEL_GW">     0</i>
   <i name="MODEL_EPS0">     13.16858037</i>
   <i name="MODEL_ALPHA">      1.00000000</i>
  </separator>
  <separator name="linear response parameters" >
   <i type="logical" name="LEPSILON"> F  </i>
   <i type="logical" name="LRPA"> F  </i>
   <i type="logical" name="LNABLA"> F  </i>
   <i type="logical" name="LVEL"> F  </i>
   <i type="int" name="KINTER">     0</i>
   <i name="CSHIFT">      0.10000000</i>
   <i name="OMEGAMAX">     -1.00000000</i>
   <i name="DEG_THRESHOLD">      0.00200000</i>
   <i name="RTIME">     -0.10000000</i>
   <i name="WPLASMAI">      0.00000000</i>
   <v name="DFIELD">      0.00000000      0.00000000      0.00000000</v>
   <v name="WPLASMA">      0.00000000      0.00000000      0.00000000      0.00000000      0.00000000      0.00000000      0.00000000      0.00000000      0.00000000</v>
  </separator>
  <separator name="orbital magnetization" >
   <i type="logical" name="NUCIND"> F  </i>
   <v name="MAGPOS">      0.00000000      0.00000000      0.00000000</v>
   <i type="logical" name="LNICSALL"> T  </i>
   <i type="logical" name="ORBITALMAG"> F  </i>
   <i type="logical" name="LMAGBLOCH"> F  </i>
   <i type="logical" name="LCHIMAG"> F  </i>
   <i type="logical" name="LGAUGE"> T  </i>
   <i type="int" name="MAGATOM">     0</i>
   <v name="MAGDIPOL">      0.00000000      0.00000000      0.00000000</v>
   <v name="AVECCONST">      0.00000000      0.00000000      0.00000000</v>
  </separator>
  <separator name="response functions" >
   <i type="logical" name="LADDER"> F  </i>
   <i type="logical" name="LRPAFORCE"> F  </i>
   <i type="logical" name="LFXC"> F  </i>
   <i type="logical" name="LHARTREE"> T  </i>
   <i type="int" name="IBSE">     0</i>
   <v type="int" name="KPOINT">    -1     0     0     0</v>
   <i type="logical" name="LTCTE"> F  </i>
   <i type="logical" name="LTETE"> F  </i>
   <i type="logical" name="LTRIPLET"> F  </i>
   <i type="logical" name="LFXCEPS"> F  </i>
   <i type="logical" name="LFXHEG"> F  </i>
   <i type="int" name="NATURALO">     2</i>
   <i type="logical" name="L2ORDER"> F  </i>
   <i type="logical" name="LMP2LT"> F  </i>
   <i type="logical" name="LUSEW"> F  </i>
   <i name="ENCUTGW">     -2.00000000</i>
   <i name="ENCUTGWSOFT">     -2.00000000</i>
   <i name="ENCUTLF">     -1.00000000</i>
   <i type="int" name="LMAXMP2">    -1</i>
   <i name="SCISSOR">      0.00000000</i>
   <i type="int" name="NOMEGA">     0</i>
   <i type="int" name="NOMEGAR">     0</i>
   <i type="int" name="NBANDSGW">    -1</i>
   <i type="int" name="NBANDSO">    -1</i>
   <i type="int" name="NBANDSV">    -1</i>
   <i type="int" name="NELM">   300</i>
   <i type="int" name="NELMHF">     1</i>
   <i type="int" name="DIM">     3</i>
   <i type="int" name="ANTIRES">     0</i>
   <i name="OMEGAMAX">    -30.00000000</i>
   <i name="OMEGAMIN">    -30.00000000</i>
   <i name="OMEGATL">   -200.00000000</i>
   <i type="int" name="OMEGAGRID">   140</i>
   <i name="CSHIFT">     -0.10000000</i>
   <i type="logical" name="SELFENERGY"> F  </i>
   <i type="logical" name="LSPECTRAL"> F  </i>
   <i type="logical" name="LSPECTRALGW"> F  </i>
   <i type="logical" name="LSINGLES"> F  </i>
   <i type="logical" name="LFERMIGW"> F  </i>
   <i type="logical" name="ODDONLYGW"> F  </i>
   <i type="logical" name="EVENONLYGW"> F  </i>
   <i type="int" name="NKREDLFX">     1</i>
   <i type="int" name="NKREDLFY">     1</i>
   <i type="int" name="NKREDLFZ">     1</i>
   <i type="int" name="MAXMEM">  2800</i>
   <i type="int" name="TELESCOPE">     0</i>
   <i type="int" name="TAUPAR">     1</i>
   <i type="int" name="OMEGAPAR">    -1</i>
   <i name="LAMBDA">      1.00000000</i>
  </separator>
  <separator name="External order field" >
   <i name="OFIELD_KAPPA">      0.00000000</i>
   <v name="OFIELD_K">      0.00000000      0.00000000      0.00000000</v>
   <i name="OFIELD_Q6_NEAR">      0.00000000</i>
   <i name="OFIELD_Q6_FAR">      0.00000000</i>
   <i name="OFIELD_A">      0.00000000</i>
  </separator>
 </parameters>
 <atominfo>
  <atoms>     116 </atoms>
  <types>       2 </types>
  <array name="atoms" >
   <dimension dim="1">ion</dimension>
   <field type="string">element</field>
   <field type="int">atomtype</field>
   <set>
    <rc><c>Cu</c><c>   1</c></rc>
    <rc><c>Cu</c><c>   1</c></rc>
    <rc><c>Cu</c><c>   1</c></rc>
    <rc><c>Cu</c><c>   1</c></rc>
    <rc><c>Cu</c><c>   1</c></rc>
    <rc><c>Cu</c><c>   1</c></rc>
    <rc><c>Cu</c><c>   1</c></rc>
    <rc><c>Cu</c><c>   1</c></rc>
    <rc><c>Cu</c><c>   1</c></rc>
    <rc><c>Cu</c><c>   1</c></rc>
    <rc><c>Cu</c><c>   1</c></rc>
    <rc><c>Cu</c><c>   1</c></rc>
    <rc><c>Cu</c><c>   1</c></rc>
    <rc><c>Cu</c><c>   1</c></rc>
    <rc><c>Cu</c><c>   1</c></rc>
    <rc><c>Cu</c><c>   1</c></rc>
    <rc><c>Cu</c><c>   1</c></rc>
    <rc><c>Cu</c><c>   1</c></rc>
    <rc><c>Cu</c><c>   1</c></rc>
    <rc><c>Cu</c><c>   1</c></rc>
    <rc><c>Cu</c><c>   1</c></rc>
    <rc><c>Cu</c><c>   1</c></rc>
    <rc><c>Cu</c><c>   1</c></rc>
    <rc><c>Cu</c><c>   1</c></rc>
    <rc><c>Cu</c><c>   1</c></rc>
    <rc><c>Cu</c><c>   1</c></rc>
    <rc><c>Cu</c><c>   1</c></rc>
    <rc><c>Cu</c><c>   1</c></rc>
    <rc><c>Cu</c><c>   1</c></rc>
    <rc><c>Cu</c><c>   1</c></rc>
    <rc><c>Cu</c><c>   1</c></rc>
    <rc><c>Cu</c><c>   1</c></rc>
    <rc><c>Cu</c><c>   1</c></rc>
    <rc><c>Cu</c><c>   1</c></rc>
    <rc><c>Cu</c><c>   1</c></rc>
    <rc><c>Cu</c><c>   1</c></rc>
    <rc><c>Cu</c><c>   1</c></rc>
    <rc><c>Cu</c><c>   1</c></rc>
    <rc><c>Cu</c><c>   1</c></rc>
    <rc><c>Cu</c><c>   1</c></rc>
    <rc><c>Cu</c><c>   1</c></rc>
    <rc><c>Cu</c><c>   1</c></rc>
    <rc><c>Cu</c><c>   1</c></rc>
    <rc><c>Cu</c><c>   1</c></rc>
    <rc><c>Cu</c><c>   1</c></rc>
    <rc><c>Cu</c><c>   1</c></rc>
    <rc><c>Cu</c><c>   1</c></rc>
    <rc><c>Cu</c><c>   1</c></rc>
    <rc><c>Cu</c><c>   1</c></rc>
    <rc><c>Cu</c><c>   1</c></rc>
    <rc><c>Cu</c><c>   1</c></rc>
    <rc><c>Cu</c><c>   1</c></rc>
    <rc><c>Cu</c><c>   1</c></rc>
    <rc><c>Cu</c><c>   1</c></rc>
    <rc><c>Cu</c><c>   1</c></rc>
    <rc><c>Cu</c><c>   1</c></rc>
    <rc><c>Cu</c><c>   1</c></rc>
    <rc><c>Cu</c><c>   1</c></rc>
    <rc><c>Cu</c><c>   1</c></rc>
    <rc><c>Cu</c><c>   1</c></rc>
    <rc><c>Cu</c><c>   1</c></rc>
    <rc><c>Cu</c><c>   1</c></rc>
    <rc><c>Cu</c><c>   1</c></rc>
    <rc><c>Cu</c><c>   1</c></rc>
    <rc><c>Cu</c><c>   1</c></rc>
    <rc><c>Cu</c><c>   1</c></rc>
    <rc><c>Cu</c><c>   1</c></rc>
    <rc><c>Cu</c><c>   1</c></rc>
    <rc><c>Cu</c><c>   1</c></rc>
    <rc><c>Cu</c><c>   1</c></rc>
    <rc><c>Cu</c><c>   1</c></rc>
    <rc><c>Cu</c><c>   1</c></rc>
    <rc><c>Cu</c><c>   1</c></rc>
    <rc><c>Cu</c><c>   1</c></rc>
    <rc><c>Cu</c><c>   1</c></rc>
    <rc><c>Cu</c><c>   1</c></rc>
    <rc><c>Cu</c><c>   1</c></rc>
    <rc><c>Cu</c><c>   1</c></rc>
    <rc><c>Cu</c><c>   1</c></rc>
    <rc><c>Cu</c><c>   1</c></rc>
    <rc><c>Cu</c><c>   1</c></rc>
    <rc><c>Cu</c><c>   1</c></rc>
    <rc><c>Cu</c><c>   1</c></rc>
    <rc><c>Cu</c><c>   1</c></rc>
    <rc><c>Cu</c><c>   1</c></rc>
    <rc><c>Cu</c><c>   1</c></rc>
    <rc><c>Cu</c><c>   1</c></rc>
    <rc><c>Cu</c><c>   1</c></rc>
    <rc><c>Cu</c><c>   1</c></rc>
    <rc><c>Cu</c><c>   1</c></rc>
    <rc><c>Cu</c><c>   1</c></rc>
    <rc><c>Cu</c><c>   1</c></rc>
    <rc><c>Cu</c><c>   1</c></rc>
    <rc><c>Cu</c><c>   1</c></rc>
    <rc><c>Cu</c><c>   1</c></rc>
    <rc><c>Cu</c><c>   1</c></rc>
    <rc><c>Cu</c><c>   1</c></rc>
    <rc><c>Cu</c><c>   1</c></rc>
    <rc><c>Cu</c><c>   1</c></rc>
    <rc><c>Cu</c><c>   1</c></rc>
    <rc><c>Cu</c><c>   1</c></rc>
    <rc><c>Cu</c><c>   1</c></rc>
    <rc><c>Cu</c><c>   1</c></rc>
    <rc><c>Cu</c><c>   1</c></rc>
    <rc><c>Cu</c><c>   1</c></rc>
    <rc><c>Cu</c><c>   1</c></rc>
    <rc><c>Cu</c><c>   1</c></rc>
    <rc><c>Cu</c><c>   1</c></rc>
    <rc><c>Cu</c><c>   1</c></rc>
    <rc><c>Cu</c><c>   1</c></rc>
    <rc><c>Cu</c><c>   1</c></rc>
    <rc><c>Cu</c><c>   1</c></rc>
    <rc><c>O </c><c>   2</c></rc>
    <rc><c>O </c><c>   2</c></rc>
    <rc><c>O </c><c>   2</c></rc>
    <rc><c>O </c><c>   2</c></rc>
   </set>
  </array>
  <array name="atomtypes" >
   <dimension dim="1">type</dimension>
   <field type="int">atomspertype</field>
   <field type="string">element</field>
   <field>mass</field>
   <field>valence</field>
   <field type="string">pseudopotential</field>
   <set>
    <rc><c> 112</c><c>Cu</c><c>     63.54600000</c><c>     11.00000000</c><c> PAW_PBE Cu 05Jan2001                   </c></rc>
    <rc><c>   4</c><c>O </c><c>     16.00000000</c><c>      6.00000000</c><c> PAW_PBE O 08Apr2002                    </c></rc>
   </set>
  </array>
 </atominfo>
 <structure name="initialpos" >
  <crystal>
   <varray name="basis" >
    <v>      10.28518105       0.00000000       0.00000000 </v>
    <v>       5.14259052       8.90722807       0.00000000 </v>
    <v>       0.00000000       0.00000000      27.79016876 </v>
   </varray>
   <i name="volume">   2545.92553775 </i>
   <varray name="rec_basis" >
    <v>       0.09722726      -0.05613419       0.00000000 </v>
    <v>       0.00000000       0.11226837       0.00000000 </v>
    <v>       0.00000000       0.00000000       0.03598395 </v>
   </varray>
  </crystal>
  <varray name="positions" >
   <v>       0.00000000       0.00000000       0.22663990 </v>
   <v>       0.00000000       0.50000000       0.22663990 </v>
   <v>       0.50000000       0.00000000       0.22663990 </v>
   <v>       0.50000000       0.50000000       0.22663990 </v>
   <v>       0.00000000       0.25000000       0.22663990 </v>
   <v>       0.00000000       0.75000000       0.22663990 </v>
   <v>       0.50000000       0.25000000       0.22663990 </v>
   <v>       0.50000000       0.75000000       0.22663990 </v>
   <v>       0.25000000       0.00000000       0.22663990 </v>
   <v>       0.25000000       0.50000000       0.22663990 </v>
   <v>       0.75000000       0.00000000       0.22663990 </v>
   <v>       0.75000000       0.50000000       0.22663990 </v>
   <v>       0.25000000       0.25000000       0.22663990 </v>
   <v>       0.25000000       0.75000000       0.22663990 </v>
   <v>       0.75000000       0.25000000       0.22663990 </v>
   <v>       0.75000000       0.75000000       0.22663990 </v>
   <v>       0.16666666       0.16666666       0.30218653 </v>
   <v>       0.16666666       0.66666666       0.30218653 </v>
   <v>       0.66666666       0.16666666       0.30218653 </v>
   <v>       0.66666666       0.66666666       0.30218653 </v>
   <v>       0.16666666       0.41666666       0.30218653 </v>
   <v>       0.16666666       0.91666666       0.30218653 </v>
   <v>       0.66666666       0.41666666       0.30218653 </v>
   <v>       0.66666666       0.91666666       0.30218653 </v>
   <v>       0.41666666       0.16666666       0.30218653 </v>
   <v>       0.41666666       0.66666666       0.30218653 </v>
   <v>       0.91666666       0.16666666       0.30218653 </v>
   <v>       0.91666666       0.66666666       0.30218653 </v>
   <v>       0.41666666       0.41666666       0.30218653 </v>
   <v>       0.41666666       0.91666666       0.30218653 </v>
   <v>       0.91666666       0.41666666       0.30218653 </v>
   <v>       0.91666666       0.91666666       0.30218653 </v>
   <v>       0.08333333       0.08333333       0.37716320 </v>
   <v>       0.08333333       0.58333333       0.37716320 </v>
   <v>       0.58333333       0.08333333       0.37716320 </v>
   <v>       0.58333333       0.58333333       0.37716320 </v>
   <v>       0.08351614       0.33324190       0.37729758 </v>
   <v>       0.08351614       0.83324190       0.37729758 </v>
   <v>       0.58351614       0.33324190       0.37729758 </v>
   <v>       0.58351614       0.83324190       0.37729758 </v>
   <v>       0.33324190       0.08351614       0.37729758 </v>
   <v>       0.33324190       0.58351614       0.37729758 </v>
   <v>       0.83324190       0.08351614       0.37729758 </v>
   <v>       0.83324190       0.58351614       0.37729758 </v>
   <v>       0.33324190       0.33324190       0.37729758 </v>
   <v>       0.33324190       0.83324190       0.37729758 </v>
   <v>       0.83324190       0.33324190       0.37729758 </v>
   <v>       0.83324190       0.83324190       0.37729758 </v>
   <v>       0.00012997       0.00012997       0.45242342 </v>
   <v>       0.00012997       0.50012997       0.45242342 </v>
   <v>       0.50012997       0.00012997       0.45242342 </v>
   <v>       0.50012997       0.50012997       0.45242342 </v>
   <v>       0.00012997       0.24974005       0.45242342 </v>
   <v>       0.00012997       0.74974005       0.45242342 </v>
   <v>       0.50012997       0.24974005       0.45242342 </v>
   <v>       0.50012997       0.74974005       0.45242342 </v>
   <v>       0.24974005       0.00012997       0.45242342 </v>
   <v>       0.24974005       0.50012997       0.45242342 </v>
   <v>       0.74974005       0.00012997       0.45242342 </v>
   <v>       0.74974005       0.50012997       0.45242342 </v>
   <v>       0.25000000       0.25000000       0.45288750 </v>
   <v>       0.25000000       0.75000000       0.45288750 </v>
   <v>       0.75000000       0.25000000       0.45288750 </v>
   <v>       0.75000000       0.75000000       0.45288750 </v>
   <v>       0.16660598       0.16660598       0.52813907 </v>
   <v>       0.16660598       0.66660598       0.52813907 </v>
   <v>       0.66660598       0.16660598       0.52813907 </v>
   <v>       0.66660598       0.66660598       0.52813907 </v>
   <v>       0.16660598       0.41678801       0.52813907 </v>
   <v>       0.16660598       0.91678801       0.52813907 </v>
   <v>       0.66660598       0.41678801       0.52813907 </v>
   <v>       0.66660598       0.91678801       0.52813907 </v>
   <v>       0.41678801       0.16660598       0.52813907 </v>
   <v>       0.41678801       0.66660598       0.52813907 </v>
   <v>       0.91678801       0.16660598       0.52813907 </v>
   <v>       0.91678801       0.66660598       0.52813907 </v>
   <v>       0.41529166       0.41666666       0.52691050 </v>
   <v>       0.41666666       0.91666666       0.52741939 </v>
   <v>       0.91666666       0.41666666       0.52741939 </v>
   <v>       0.91666666       0.91666666       0.52741939 </v>
   <v>       0.08333333       0.08333333       0.60253339 </v>
   <v>       0.08333333       0.58333333       0.60253339 </v>
   <v>       0.58333333       0.08333333       0.60253339 </v>
   <v>       0.58333333       0.58333333       0.60253339 </v>
   <v>       0.08130935       0.33434529       0.60320464 </v>
   <v>       0.08130935       0.83434529       0.60320464 </v>
   <v>       0.58130935       0.33434529       0.60320464 </v>
   <v>       0.58130935       0.83434529       0.60320464 </v>
   <v>       0.33434529       0.08130935       0.60320464 </v>
   <v>       0.33434529       0.58130935       0.60320464 </v>
   <v>       0.83434529       0.08130935       0.60320464 </v>
   <v>       0.83434529       0.58130935       0.60320464 </v>
   <v>       0.33434529       0.33434529       0.60320464 </v>
   <v>       0.33434529       0.83434529       0.60320464 </v>
   <v>       0.83434529       0.33434529       0.60320464 </v>
   <v>       0.83434529       0.83434529       0.60320464 </v>
   <v>       0.49714648       0.49714648       0.68057248 </v>
   <v>       0.49714648       0.99714648       0.68057248 </v>
   <v>       0.99714648       0.49714648       0.68057248 </v>
   <v>       0.99714648       0.99714648       0.68057248 </v>
   <v>       0.49714648       0.25570704       0.68057248 </v>
   <v>       0.49714648       0.75570704       0.68057248 </v>
   <v>       0.99714648       0.25570704       0.68057248 </v>
   <v>       0.99714648       0.75570704       0.68057248 </v>
   <v>       0.25570704       0.49714648       0.68057248 </v>
   <v>       0.25570704       0.99714648       0.68057248 </v>
   <v>       0.75570704       0.49714648       0.68057248 </v>
   <v>       0.75570704       0.99714648       0.68057248 </v>
   <v>       0.25000000       0.25000000       0.67480871 </v>
   <v>       0.25000000       0.75000000       0.67480871 </v>
   <v>       0.75000000       0.25000000       0.67480871 </v>
   <v>       0.75000000       0.75000000       0.67480871 </v>
   <v>       0.08333333       0.08333333       0.72043888 </v>
   <v>       0.08333333       0.58333333       0.72043888 </v>
   <v>       0.58333333       0.08333333       0.72043888 </v>
   <v>       0.58333333       0.58333333       0.72043888 </v>
  </varray>
 </structure>
 <calculation>
  <scstep>
   <time name="dav">  161.55  161.81</time>
   <time name="total">  162.13  162.41</time>
   <energy>
    <i name="alphaZ">   6463.29446255 </i>
    <i name="ewald"> 664606.74577820 </i>
    <i name="hartreedc">-815361.63621778 </i>
    <i name="XCdc">   5009.43437153 </i>
    <i name="pawpsdc"> 122173.85035501 </i>
    <i name="pawaedc">-138312.01710912 </i>
    <i name="eentropy">     -0.03073937 </i>
    <i name="bandstr">   8852.71504490 </i>
    <i name="atom"> 157518.83071590 </i>
    <i name="e_fr_energy">  10951.18666183 </i>
    <i name="e_wo_entrp">  10951.21740120 </i>
    <i name="e_0_energy">  10951.20203151 </i>
   </energy>
  </scstep>
  <scstep>
   <time name="dav">  162.18  162.78</time>
   <time name="total">  162.21  162.80</time>
   <energy>
    <i name="e_fr_energy">   1074.14857074 </i>
    <i name="e_wo_entrp">   1074.18984870 </i>
    <i name="e_0_energy">   1074.16920972 </i>
   </energy>
  </scstep>
  <scstep>
   <time name="dav">  166.26  166.54</time>
   <time name="total">  166.29  166.56</time>
   <energy>
    <i name="e_fr_energy">   -373.59180772 </i>
    <i name="e_wo_entrp">   -373.52638539 </i>
    <i name="e_0_energy">   -373.55909656 </i>
   </energy>
  </scstep>
  <scstep>
   <time name="dav">  181.65  181.89</time>
   <time name="total">  181.67  181.92</time>
   <energy>
    <i name="e_fr_energy">   -524.82496279 </i>
    <i name="e_wo_entrp">   -524.76178617 </i>
    <i name="e_0_energy">   -524.79337448 </i>
   </energy>
  </scstep>
  <scstep>
   <time name="dav">  163.75  163.98</time>
   <time name="total">  168.35  168.59</time>
   <energy>
    <i name="e_fr_energy">   -530.86796289 </i>
    <i name="e_wo_entrp">   -530.80471123 </i>
    <i name="e_0_energy">   -530.83633706 </i>
   </energy>
  </scstep>
  <scstep>
   <time name="dav">  166.03  166.23</time>
   <time name="total">  171.08  171.30</time>
   <energy>
    <i name="e_fr_energy">   -478.08162025 </i>
    <i name="e_wo_entrp">   -478.02532014 </i>
    <i name="e_0_energy">   -478.05347019 </i>
   </energy>
  </scstep>
  <scstep>
   <time name="dav">  178.63  178.87</time>
   <time name="total">  183.60  183.88</time>
   <energy>
    <i name="e_fr_energy">   -511.14863067 </i>
    <i name="e_wo_entrp">   -511.02716088 </i>
    <i name="e_0_energy">   -511.08789577 </i>
   </energy>
  </scstep>
  <scstep>
   <time name="dav">  195.56  195.80</time>
   <time name="total">  200.55  200.84</time>
   <energy>
    <i name="e_fr_energy">   -444.83859737 </i>
    <i name="e_wo_entrp">   -444.75470900 </i>
    <i name="e_0_energy">   -444.79665319 </i>
   </energy>
  </scstep>
  <scstep>
   <time name="dav">  197.84  198.15</time>
   <time name="total">  204.97  205.28</time>
   <energy>
    <i name="e_fr_energy">   -428.51557658 </i>
    <i name="e_wo_entrp">   -428.47640698 </i>
    <i name="e_0_energy">   -428.49599178 </i>
   </energy>
  </scstep>
  <scstep>
   <time name="dav">  178.58  178.84</time>
   <time name="total">  184.58  184.88</time>
   <energy>
    <i name="e_fr_energy">   -429.30232875 </i>
    <i name="e_wo_entrp">   -429.24892050 </i>
    <i name="e_0_energy">   -429.27562463 </i>
   </energy>
  </scstep>
  <scstep>
   <time name="dav">  177.76  178.01</time>
   <time name="total">  184.39  184.64</time>
   <energy>
    <i name="e_fr_energy">   -427.93231386 </i>
    <i name="e_wo_entrp">   -427.86576905 </i>
    <i name="e_0_energy">   -427.89904145 </i>
   </energy>
  </scstep>
  <scstep>
   <time name="dav">  186.44  186.65</time>
   <time name="total">  194.68  194.93</time>
   <energy>
    <i name="e_fr_energy">   -427.70104133 </i>
    <i name="e_wo_entrp">   -427.64615659 </i>
    <i name="e_0_energy">   -427.67359896 </i>
   </energy>
  </scstep>
  <scstep>
   <time name="dav">  171.58  171.90</time>
   <time name="total">  176.55  209.70</time>
   <energy>
    <i name="e_fr_energy">   -427.64651287 </i>
    <i name="e_wo_entrp">   -427.59185254 </i>
    <i name="e_0_energy">   -427.61918270 </i>
   </energy>
  </scstep>
  <scstep>
   <time name="dav">  169.12  169.35</time>
   <time name="total">  174.09  175.14</time>
   <energy>
    <i name="e_fr_energy">   -427.54128694 </i>
    <i name="e_wo_entrp">   -427.49204322 </i>
    <i name="e_0_energy">   -427.51666508 </i>
   </energy>
  </scstep>
  <scstep>
   <time name="dav">  165.80  166.06</time>
   <time name="total">  170.77  171.03</time>
   <energy>
    <i name="e_fr_energy">   -427.61110743 </i>
    <i name="e_wo_entrp">   -427.56259535 </i>
    <i name="e_0_energy">   -427.58685139 </i>
   </energy>
  </scstep>
  <scstep>
   <time name="dav">  161.42  161.67</time>
   <time name="total">  166.40  166.65</time>
   <energy>
    <i name="e_fr_energy">   -427.51255022 </i>
    <i name="e_wo_entrp">   -427.46291854 </i>
    <i name="e_0_energy">   -427.48773438 </i>
   </energy>
  </scstep>
  <scstep>
   <time name="dav">  176.92  177.17</time>
   <time name="total">  183.72  183.99</time>
   <energy>
    <i name="e_fr_energy">   -427.47863545 </i>
    <i name="e_wo_entrp">   -427.42742331 </i>
    <i name="e_0_energy">   -427.45302938 </i>
   </energy>
  </scstep>
  <scstep>
   <time name="dav">  200.09  200.42</time>
   <time name="total">  205.04  205.38</time>
   <energy>
    <i name="e_fr_energy">   -427.46504315 </i>
    <i name="e_wo_entrp">   -427.41251863 </i>
    <i name="e_0_energy">   -427.43878089 </i>
   </energy>
  </scstep>
  <scstep>
   <time name="dav">  176.07  176.33</time>
   <time name="total">  181.68  181.94</time>
   <energy>
    <i name="e_fr_energy">   -427.46496810 </i>
    <i name="e_wo_entrp">   -427.41189234 </i>
    <i name="e_0_energy">   -427.43843022 </i>
   </energy>
  </scstep>
  <scstep>
   <time name="dav">  160.44  160.68</time>
   <time name="total">  165.41  165.65</time>
   <energy>
    <i name="e_fr_energy">   -427.46543916 </i>
    <i name="e_wo_entrp">   -427.41217815 </i>
    <i name="e_0_energy">   -427.43880865 </i>
   </energy>
  </scstep>
  <scstep>
   <time name="dav">  158.04  158.26</time>
   <time name="total">  163.01  163.23</time>
   <energy>
    <i name="e_fr_energy">   -427.46587726 </i>
    <i name="e_wo_entrp">   -427.41232671 </i>
    <i name="e_0_energy">   -427.43910198 </i>
   </energy>
  </scstep>
  <scstep>
   <time name="dav">  160.23  160.47</time>
   <time name="total">  165.21  165.46</time>
   <energy>
    <i name="e_fr_energy">   -427.46590420 </i>
    <i name="e_wo_entrp">   -427.41260529 </i>
    <i name="e_0_energy">   -427.43925475 </i>
   </energy>
  </scstep>
  <scstep>
   <time name="dav">  156.01  156.30</time>
   <time name="total">  160.97  161.26</time>
   <energy>
    <i name="e_fr_energy">   -427.46592988 </i>
    <i name="e_wo_entrp">   -427.41265931 </i>
    <i name="e_0_energy">   -427.43929460 </i>
   </energy>
  </scstep>
  <scstep>
   <time name="dav">  155.70  155.88</time>
   <time name="total">  160.72  160.90</time>
   <energy>
    <i name="e_fr_energy">   -427.46606888 </i>
    <i name="e_wo_entrp">   -427.41278825 </i>
    <i name="e_0_energy">   -427.43942857 </i>
   </energy>
  </scstep>
  <scstep>
   <time name="dav">  174.10  174.31</time>
   <time name="total">  179.15  179.36</time>
   <energy>
    <i name="e_fr_energy">   -427.46622280 </i>
    <i name="e_wo_entrp">   -427.41298137 </i>
    <i name="e_0_energy">   -427.43960208 </i>
   </energy>
  </scstep>
  <scstep>
   <time name="dav">  185.38  185.61</time>
   <time name="total">  190.35  190.58</time>
   <energy>
    <i name="e_fr_energy">   -427.46647493 </i>
    <i name="e_wo_entrp">   -427.41323498 </i>
    <i name="e_0_energy">   -427.43985496 </i>
   </energy>
  </scstep>
  <scstep>
   <time name="dav">  162.47  162.69</time>
   <time name="total">  168.58  168.81</time>
   <energy>
    <i name="e_fr_energy">   -427.46673330 </i>
    <i name="e_wo_entrp">   -427.41349047 </i>
    <i name="e_0_energy">   -427.44011188 </i>
   </energy>
  </scstep>
  <scstep>
   <time name="dav">  160.57  160.75</time>
   <time name="total">  165.55  165.74</time>
   <energy>
    <i name="e_fr_energy">   -427.46690171 </i>
    <i name="e_wo_entrp">   -427.41367245 </i>
    <i name="e_0_energy">   -427.44028708 </i>
   </energy>
  </scstep>
  <scstep>
   <time name="dav">  155.45  155.64</time>
   <time name="total">  160.44  160.64</time>
   <energy>
    <i name="e_fr_energy">   -427.46705430 </i>
    <i name="e_wo_entrp">   -427.41384475 </i>
    <i name="e_0_energy">   -427.44044952 </i>
   </energy>
  </scstep>
  <scstep>
   <time name="dav">  156.41  156.62</time>
   <time name="total">  163.60  163.81</time>
   <energy>
    <i name="e_fr_energy">   -427.46714643 </i>
    <i name="e_wo_entrp">   -427.41393734 </i>
    <i name="e_0_energy">   -427.44054188 </i>
   </energy>
  </scstep>
  <scstep>
   <time name="dav">  149.85  150.02</time>
   <time name="total">  154.82  155.00</time>
   <energy>
    <i name="e_fr_energy">   -427.46726960 </i>
    <i name="e_wo_entrp">   -427.41403854 </i>
    <i name="e_0_energy">   -427.44065407 </i>
   </energy>
  </scstep>
  <scstep>
   <time name="dav">  139.26  139.42</time>
   <time name="total">  144.23  144.39</time>
   <energy>
    <i name="e_fr_energy">   -427.46730121 </i>
    <i name="e_wo_entrp">   -427.41406285 </i>
    <i name="e_0_energy">   -427.44068203 </i>
   </energy>
  </scstep>
  <scstep>
   <time name="dav">  117.40  117.54</time>
   <time name="total">  122.38  122.52</time>
   <energy>
    <i name="e_fr_energy">   -427.46733317 </i>
    <i name="e_wo_entrp">   -427.41409410 </i>
    <i name="e_0_energy">   -427.44071364 </i>
   </energy>
  </scstep>
  <scstep>
   <time name="dav">  117.62  117.79</time>
   <time name="total">  122.63  122.81</time>
   <energy>
    <i name="e_fr_energy">   -427.46735499 </i>
    <i name="e_wo_entrp">   -427.41412292 </i>
    <i name="e_0_energy">   -427.44073896 </i>
   </energy>
  </scstep>
  <scstep>
   <time name="dav">  115.55  115.74</time>
   <time name="total">  120.56  120.76</time>
   <energy>
    <i name="e_fr_energy">   -427.46736682 </i>
    <i name="e_wo_entrp">   -427.41413764 </i>
    <i name="e_0_energy">   -427.44075223 </i>
   </energy>
  </scstep>
  <scstep>
   <time name="dav">  114.27  114.40</time>
   <time name="total">  119.24  119.37</time>
   <energy>
    <i name="e_fr_energy">   -427.46737632 </i>
    <i name="e_wo_entrp">   -427.41414989 </i>
    <i name="e_0_energy">   -427.44076311 </i>
   </energy>
  </scstep>
  <scstep>
   <time name="dav">  121.91  122.10</time>
   <time name="total">  126.89  127.09</time>
   <energy>
    <i name="e_fr_energy">   -427.46738481 </i>
    <i name="e_wo_entrp">   -427.41415717 </i>
    <i name="e_0_energy">   -427.44077099 </i>
   </energy>
  </scstep>
  <scstep>
   <time name="dav">  154.86  155.03</time>
   <time name="total">  160.85  161.03</time>
   <energy>
    <i name="e_fr_energy">   -427.46738700 </i>
    <i name="e_wo_entrp">   -427.41415818 </i>
    <i name="e_0_energy">   -427.44077259 </i>
   </energy>
  </scstep>
  <scstep>
   <time name="dav">  113.45  113.62</time>
   <time name="total">  118.43  118.61</time>
   <energy>
    <i name="e_fr_energy">   -427.46738832 </i>
    <i name="e_wo_entrp">   -427.41415902 </i>
    <i name="e_0_energy">   -427.44077367 </i>
   </energy>
  </scstep>
  <scstep>
   <time name="dav">  111.64  111.76</time>
   <time name="total">  116.65  116.79</time>
   <energy>
    <i name="e_fr_energy">   -427.46738943 </i>
    <i name="e_wo_entrp">   -427.41415988 </i>
    <i name="e_0_energy">   -427.44077466 </i>
   </energy>
  </scstep>
  <scstep>
   <time name="dav">  111.84  111.97</time>
   <time name="total">  112.33  112.46</time>
   <energy>
    <i name="alphaZ">   6463.29446255 </i>
    <i name="ewald"> 664606.74577820 </i>
    <i name="hartreedc">-813397.68249307 </i>
    <i name="XCdc">   4896.83206762 </i>
    <i name="pawpsdc"> 123760.01660389 </i>
    <i name="pawaedc">-139977.07780232 </i>
    <i name="eentropy">     -0.05322952 </i>
    <i name="bandstr">  -4298.37349332 </i>
    <i name="atom"> 157518.83071590 </i>
    <i name="e_fr_energy">   -427.46739006 </i>
    <i name="e_wo_entrp">   -427.41416054 </i>
    <i name="e_0_energy">   -427.44077530 </i>
   </energy>
  </scstep>
  <structure>
   <crystal>
    <varray name="basis" >
     <v>      10.28518105       0.00000000       0.00000000 </v>
     <v>       5.14259052       8.90722807       0.00000000 </v>
     <v>       0.00000000       0.00000000      27.79016876 </v>
    </varray>
    <i name="volume">   2545.92553775 </i>
    <varray name="rec_basis" >
     <v>       0.09722726      -0.05613419       0.00000000 </v>
     <v>       0.00000000       0.11226837       0.00000000 </v>
     <v>       0.00000000       0.00000000       0.03598395 </v>
    </varray>
   </crystal>
   <varray name="positions" >
    <v>       0.00000000       0.00000000       0.22663990 </v>
    <v>       0.00000000       0.50000000       0.22663990 </v>
    <v>       0.50000000       0.00000000       0.22663990 </v>
    <v>       0.50000000       0.50000000       0.22663990 </v>
    <v>       0.00000000       0.25000000       0.22663990 </v>
    <v>       0.00000000       0.75000000       0.22663990 </v>
    <v>       0.50000000       0.25000000       0.22663990 </v>
    <v>       0.50000000       0.75000000       0.22663990 </v>
    <v>       0.25000000       0.00000000       0.22663990 </v>
    <v>       0.25000000       0.50000000       0.22663990 </v>
    <v>       0.75000000       0.00000000       0.22663990 </v>
    <v>       0.75000000       0.50000000       0.22663990 </v>
    <v>       0.25000000       0.25000000       0.22663990 </v>
    <v>       0.25000000       0.75000000       0.22663990 </v>
    <v>       0.75000000       0.25000000       0.22663990 </v>
    <v>       0.75000000       0.75000000       0.22663990 </v>
    <v>       0.16666666       0.16666666       0.30218653 </v>
    <v>       0.16666666       0.66666666       0.30218653 </v>
    <v>       0.66666666       0.16666666       0.30218653 </v>
    <v>       0.66666666       0.66666666       0.30218653 </v>
    <v>       0.16666666       0.41666666       0.30218653 </v>
    <v>       0.16666666       0.91666666       0.30218653 </v>
    <v>       0.66666666       0.41666666       0.30218653 </v>
    <v>       0.66666666       0.91666666       0.30218653 </v>
    <v>       0.41666666       0.16666666       0.30218653 </v>
    <v>       0.41666666       0.66666666       0.30218653 </v>
    <v>       0.91666666       0.16666666       0.30218653 </v>
    <v>       0.91666666       0.66666666       0.30218653 </v>
    <v>       0.41666666       0.41666666       0.30218653 </v>
    <v>       0.41666666       0.91666666       0.30218653 </v>
    <v>       0.91666666       0.41666666       0.30218653 </v>
    <v>       0.91666666       0.91666666       0.30218653 </v>
    <v>       0.08333333       0.08333333       0.37716320 </v>
    <v>       0.08333333       0.58333333       0.37716320 </v>
    <v>       0.58333333       0.08333333       0.37716320 </v>
    <v>       0.58333333       0.58333333       0.37716320 </v>
    <v>       0.08351614       0.33324190       0.37729758 </v>
    <v>       0.08351614       0.83324190       0.37729758 </v>
    <v>       0.58351614       0.33324190       0.37729758 </v>
    <v>       0.58351614       0.83324190       0.37729758 </v>
    <v>       0.33324190       0.08351614       0.37729758 </v>
    <v>       0.33324190       0.58351614       0.37729758 </v>
    <v>       0.83324190       0.08351614       0.37729758 </v>
    <v>       0.83324190       0.58351614       0.37729758 </v>
    <v>       0.33324190       0.33324190       0.37729758 </v>
    <v>       0.33324190       0.83324190       0.37729758 </v>
    <v>       0.83324190       0.33324190       0.37729758 </v>
    <v>       0.83324190       0.83324190       0.37729758 </v>
    <v>       0.00012997       0.00012997       0.45242342 </v>
    <v>       0.00012997       0.50012997       0.45242342 </v>
    <v>       0.50012997       0.00012997       0.45242342 </v>
    <v>       0.50012997       0.50012997       0.45242342 </v>
    <v>       0.00012997       0.24974005       0.45242342 </v>
    <v>       0.00012997       0.74974005       0.45242342 </v>
    <v>       0.50012997       0.24974005       0.45242342 </v>
    <v>       0.50012997       0.74974005       0.45242342 </v>
    <v>       0.24974005       0.00012997       0.45242342 </v>
    <v>       0.24974005       0.50012997       0.45242342 </v>
    <v>       0.74974005       0.00012997       0.45242342 </v>
    <v>       0.74974005       0.50012997       0.45242342 </v>
    <v>       0.25000000       0.25000000       0.45288750 </v>
    <v>       0.25000000       0.75000000       0.45288750 </v>
    <v>       0.75000000       0.25000000       0.45288750 </v>
    <v>       0.75000000       0.75000000       0.45288750 </v>
    <v>       0.16660598       0.16660598       0.52813907 </v>
    <v>       0.16660598       0.66660598       0.52813907 </v>
    <v>       0.66660598       0.16660598       0.52813907 </v>
    <v>       0.66660598       0.66660598       0.52813907 </v>
    <v>       0.16660598       0.41678801       0.52813907 </v>
    <v>       0.16660598       0.91678801       0.52813907 </v>
    <v>       0.66660598       0.41678801       0.52813907 </v>
    <v>       0.66660598       0.91678801       0.52813907 </v>
    <v>       0.41678801       0.16660598       0.52813907 </v>
    <v>       0.41678801       0.66660598       0.52813907 </v>
    <v>       0.91678801       0.16660598       0.52813907 </v>
    <v>       0.91678801       0.66660598       0.52813907 </v>
    <v>       0.41529166       0.41666666       0.52691050 </v>
    <v>       0.41666666       0.91666666       0.52741939 </v>
    <v>       0.91666666       0.41666666       0.52741939 </v>
    <v>       0.91666666       0.91666666       0.52741939 </v>
    <v>       0.08333333       0.08333333       0.60253339 </v>
    <v>       0.08333333       0.58333333       0.60253339 </v>
    <v>       0.58333333       0.08333333       0.60253339 </v>
    <v>       0.58333333       0.58333333       0.60253339 </v>
    <v>       0.08130935       0.33434529       0.60320464 </v>
    <v>       0.08130935       0.83434529       0.60320464 </v>
    <v>       0.58130935       0.33434529       0.60320464 </v>
    <v>       0.58130935       0.83434529       0.60320464 </v>
    <v>       0.33434529       0.08130935       0.60320464 </v>
    <v>       0.33434529       0.58130935       0.60320464 </v>
    <v>       0.83434529       0.08130935       0.60320464 </v>
    <v>       0.83434529       0.58130935       0.60320464 </v>
    <v>       0.33434529       0.33434529       0.60320464 </v>
    <v>       0.33434529       0.83434529       0.60320464 </v>
    <v>       0.83434529       0.33434529       0.60320464 </v>
    <v>       0.83434529       0.83434529       0.60320464 </v>
    <v>       0.49714648       0.49714648       0.68057248 </v>
    <v>       0.49714648       0.99714648       0.68057248 </v>
    <v>       0.99714648       0.49714648       0.68057248 </v>
    <v>       0.99714648       0.99714648       0.68057248 </v>
    <v>       0.49714648       0.25570704       0.68057248 </v>
    <v>       0.49714648       0.75570704       0.68057248 </v>
    <v>       0.99714648       0.25570704       0.68057248 </v>
    <v>       0.99714648       0.75570704       0.68057248 </v>
    <v>       0.25570704       0.49714648       0.68057248 </v>
    <v>       0.25570704       0.99714648       0.68057248 </v>
    <v>       0.75570704       0.49714648       0.68057248 </v>
    <v>       0.75570704       0.99714648       0.68057248 </v>
    <v>       0.25000000       0.25000000       0.67480871 </v>
    <v>       0.25000000       0.75000000       0.67480871 </v>
    <v>       0.75000000       0.25000000       0.67480871 </v>
    <v>       0.75000000       0.75000000       0.67480871 </v>
    <v>       0.08333333       0.08333333       0.72043888 </v>
    <v>       0.08333333       0.58333333       0.72043888 </v>
    <v>       0.58333333       0.08333333       0.72043888 </v>
    <v>       0.58333333       0.58333333       0.72043888 </v>
   </varray>
  </structure>
  <varray name="forces" >
   <v>       0.00796778       0.00460725       0.07181592 </v>
   <v>       0.00798725       0.00469544       0.07163084 </v>
   <v>       0.00802649       0.00463700       0.07168155 </v>
   <v>       0.00792248       0.00462478       0.07168793 </v>
   <v>      -0.00000903      -0.00914082       0.07165584 </v>
   <v>      -0.00002541      -0.00919561       0.07158561 </v>
   <v>      -0.00008531      -0.00914320       0.07169983 </v>
   <v>      -0.00012227      -0.00920546       0.07168825 </v>
   <v>      -0.00786045       0.00453483       0.07149534 </v>
   <v>      -0.00791087       0.00451966       0.07171496 </v>
   <v>      -0.00785846       0.00464784       0.07159244 </v>
   <v>      -0.00799501       0.00442149       0.07164443 </v>
   <v>       0.00000402      -0.00000274       0.08637526 </v>
   <v>       0.00000834      -0.00002689       0.08637045 </v>
   <v>      -0.00004354       0.00002972       0.08636660 </v>
   <v>      -0.00005709       0.00000064       0.08618005 </v>
   <v>       0.00705665       0.00419084      -0.08009658 </v>
   <v>       0.00710070       0.00414664      -0.07992711 </v>
   <v>       0.00720498       0.00406374      -0.07992643 </v>
   <v>       0.00692155       0.00413020      -0.08000887 </v>
   <v>       0.00005227      -0.00802958      -0.07992730 </v>
   <v>      -0.00020314      -0.00810150      -0.08005539 </v>
   <v>       0.00003113      -0.00812293      -0.07992800 </v>
   <v>      -0.00023433      -0.00802530      -0.08009302 </v>
   <v>      -0.00677326       0.00403053      -0.07992996 </v>
   <v>      -0.00689527       0.00390815      -0.07993116 </v>
   <v>      -0.00697149       0.00390700      -0.08001587 </v>
   <v>      -0.00697863       0.00389255      -0.08018025 </v>
   <v>      -0.00006006      -0.00000004      -0.05910687 </v>
   <v>      -0.00007928       0.00000029      -0.05904164 </v>
   <v>      -0.00007850       0.00004059      -0.05911552 </v>
   <v>      -0.00015107      -0.00004206      -0.05918824 </v>
   <v>      -0.00011414       0.00000180       0.00005806 </v>
   <v>      -0.00000881       0.00002470      -0.00021476 </v>
   <v>       0.00003084      -0.00001392      -0.00009454 </v>
   <v>       0.00001451      -0.00000763       0.00001455 </v>
   <v>       0.00014930       0.00014161       0.00019712 </v>
   <v>       0.00003950      -0.00009717       0.00007312 </v>
   <v>       0.00012882      -0.00014645      -0.00069081 </v>
   <v>       0.00009691       0.00000629      -0.00008896 </v>
   <v>       0.00024447       0.00008210       0.00017627 </v>
   <v>      -0.00012864       0.00019026      -0.00081068 </v>
   <v>       0.00001211       0.00012925      -0.00007436 </v>
   <v>       0.00010332       0.00001229      -0.00006284 </v>
   <v>      -0.00019987      -0.00003891      -0.00092926 </v>
   <v>      -0.00002721      -0.00020455       0.00002340 </v>
   <v>      -0.00014870      -0.00003981      -0.00010313 </v>
   <v>       0.00007397      -0.00001436      -0.00004306 </v>
   <v>      -0.00007186      -0.00016443       0.00010291 </v>
   <v>      -0.00089059       0.00029425      -0.00044798 </v>
   <v>      -0.00015593      -0.00053618      -0.00019588 </v>
   <v>       0.00522249       0.00211524      -0.00515453 </v>
   <v>       0.00020949       0.00008126       0.00009224 </v>
   <v>      -0.00057960       0.00041191      -0.00046029 </v>
   <v>       0.00163781      -0.01289495      -0.01657724 </v>
   <v>      -0.00004315      -0.00002414       0.00003951 </v>
   <v>       0.00006928       0.00007910       0.00009109 </v>
   <v>      -0.01728917       0.01097533      -0.02850656 </v>
   <v>      -0.00009567      -0.00012102      -0.00021640 </v>
   <v>      -0.00028387      -0.00001671       0.00003135 </v>
   <v>      -0.00051201      -0.00046527      -0.00041951 </v>
   <v>       0.00029246       0.00048553      -0.00002047 </v>
   <v>       0.00032545      -0.00001988       0.00038171 </v>
   <v>      -0.00008329       0.00000203       0.00023550 </v>
   <v>      -0.00055960      -0.00032465      -0.00002109 </v>
   <v>      -0.00499427       0.01105168       0.00141241 </v>
   <v>      -0.00514889       0.01103241       0.00096716 </v>
   <v>      -0.00057059      -0.00032562      -0.00007061 </v>
   <v>      -0.02492120       0.00010027       0.00175336 </v>
   <v>       0.00000210       0.00004474      -0.00010516 </v>
   <v>      -0.02350637       0.00015492       0.00084614 </v>
   <v>      -0.00000839      -0.00008044       0.00005238 </v>
   <v>      -0.00480562      -0.01118074       0.00161406 </v>
   <v>      -0.00489365      -0.01115595       0.00115190 </v>
   <v>      -0.00048486       0.00028078      -0.00019063 </v>
   <v>      -0.00070893       0.00040343       0.00016609 </v>
   <v>       0.09314104      -0.00006362       0.09611191 </v>
   <v>       0.00006674      -0.00014026       0.00005983 </v>
   <v>      -0.00017461       0.00004063       0.00002779 </v>
   <v>      -0.00000437       0.00009676      -0.00000942 </v>
   <v>       0.00007172      -0.00000139      -0.00001372 </v>
   <v>       0.00019517       0.00007486       0.00018431 </v>
   <v>       0.00031814       0.00051034      -0.00015393 </v>
   <v>      -0.00069302      -0.00058043      -0.00049687 </v>
   <v>      -0.00022617      -0.00000424      -0.00036978 </v>
   <v>      -0.00006559      -0.00019072      -0.00057720 </v>
   <v>      -0.01468383       0.00915636      -0.02564598 </v>
   <v>       0.00018793       0.00002804      -0.00031432 </v>
   <v>      -0.00001031       0.00001889      -0.00042160 </v>
   <v>       0.00124453      -0.01172069      -0.01594317 </v>
   <v>      -0.00059429       0.00048244      -0.00083398 </v>
   <v>       0.00023705       0.00023987      -0.00037526 </v>
   <v>       0.00549873       0.00241448      -0.00578876 </v>
   <v>      -0.00019204      -0.00056625      -0.00066236 </v>
   <v>      -0.00093172       0.00025291      -0.00086645 </v>
   <v>      -0.00021243      -0.00026041      -0.00041427 </v>
   <v>       0.00021333       0.00028609      -0.00218229 </v>
   <v>      -0.00014663      -0.00026839      -0.00062969 </v>
   <v>      -0.00014281       0.00001392      -0.00074920 </v>
   <v>       0.00005007       0.00006478      -0.00084851 </v>
   <v>      -0.00028742      -0.00024238      -0.00206032 </v>
   <v>       0.00020092       0.00030118      -0.00052417 </v>
   <v>      -0.00006417      -0.00003903      -0.00076559 </v>
   <v>      -0.00005672       0.00000299      -0.00076008 </v>
   <v>      -0.00020383      -0.00005087      -0.00192522 </v>
   <v>      -0.00002301      -0.00002455      -0.00065707 </v>
   <v>       0.00024001       0.00005705      -0.00051048 </v>
   <v>      -0.00003059      -0.00010003      -0.00062563 </v>
   <v>       0.00004711      -0.00003002      -0.00029674 </v>
   <v>       0.00009196       0.00005817      -0.00027539 </v>
   <v>       0.00014617      -0.00003402      -0.00024267 </v>
   <v>       0.00002441       0.00000294      -0.00038104 </v>
   <v>      -0.00000276      -0.00000012       0.00165577 </v>
   <v>      -0.00004234       0.00005485       0.00191811 </v>
   <v>       0.00005235       0.00028689       0.00184263 </v>
   <v>      -0.00054789      -0.00034849       0.00182619 </v>
  </varray>
  <varray name="stress" >
   <v>      -2.05881648      -0.00625448      -0.00052217 </v>
   <v>      -0.00625450      -2.06006433      -0.00049078 </v>
   <v>      -0.00052216      -0.00049077      -2.15565412 </v>
  </varray>
  <energy>
   <i name="e_fr_energy">   -427.46739006 </i>
   <i name="e_wo_entrp">   -427.44077530 </i>
   <i name="e_0_energy">     -0.05322952 </i>
  </energy>
  <time name="totalsc"> 6960.38 7004.10</time>
  <eigenvalues>
   <array>
    <dimension dim="1">band</dimension>
    <dimension dim="2">kpoint</dimension>
    <dimension dim="3">spin</dimension>
    <field>eigene</field>
    <field>occ</field>
    <set>
     <set comment="spin 1">
      <set comment="kpoint 1">
       <r>  -18.6065    1.0000 </r>
       <r>  -18.5936    1.0000 </r>
       <r>  -18.5936    1.0000 </r>
       <r>  -18.5935    1.0000 </r>
       <r>   -9.4531    1.0000 </r>
       <r>   -8.9599    1.0000 </r>
       <r>   -8.1740    1.0000 </r>
       <r>   -7.6001    1.0000 </r>
       <r>   -7.5991    1.0000 </r>
       <r>   -7.5988    1.0000 </r>
       <r>   -7.5775    1.0000 </r>
       <r>   -7.5772    1.0000 </r>
       <r>   -7.5766    1.0000 </r>
       <r>   -7.2192    1.0000 </r>
       <r>   -7.2190    1.0000 </r>
       <r>   -7.2173    1.0000 </r>
       <r>   -7.1999    1.0000 </r>
       <r>   -7.1454    1.0000 </r>
       <r>   -7.1448    1.0000 </r>
       <r>   -7.1443    1.0000 </r>
       <r>   -6.6288    1.0000 </r>
       <r>   -6.6269    1.0000 </r>
       <r>   -6.6267    1.0000 </r>
       <r>   -6.4854    1.0000 </r>
       <r>   -6.4853    1.0000 </r>
       <r>   -6.4850    1.0000 </r>
       <r>   -6.2512    1.0000 </r>
       <r>   -5.9481    1.0000 </r>
       <r>   -5.9479    1.0000 </r>
       <r>   -5.9467    1.0000 </r>
       <r>   -5.7419    1.0000 </r>
       <r>   -5.7415    1.0000 </r>
       <r>   -5.7412    1.0000 </r>
       <r>   -5.6688    1.0000 </r>
       <r>   -5.6246    1.0000 </r>
       <r>   -5.6246    1.0000 </r>
       <r>   -5.4387    1.0000 </r>
       <r>   -5.4098    1.0000 </r>
       <r>   -5.4097    1.0000 </r>
       <r>   -5.4097    1.0000 </r>
       <r>   -5.3422    1.0000 </r>
       <r>   -5.3412    1.0000 </r>
       <r>   -5.3410    1.0000 </r>
       <r>   -5.3240    1.0000 </r>
       <r>   -5.2833    1.0000 </r>
       <r>   -5.2830    1.0000 </r>
       <r>   -5.2152    1.0000 </r>
       <r>   -5.2085    1.0000 </r>
       <r>   -5.2084    1.0000 </r>
       <r>   -5.2079    1.0000 </r>
       <r>   -5.1342    1.0000 </r>
       <r>   -5.1340    1.0000 </r>
       <r>   -5.1233    1.0000 </r>
       <r>   -5.0550    1.0000 </r>
       <r>   -5.0330    1.0000 </r>
       <r>   -5.0329    1.0000 </r>
       <r>   -5.0038    1.0000 </r>
       <r>   -5.0034    1.0000 </r>
       <r>   -5.0031    1.0000 </r>
       <r>   -4.9783    1.0000 </r>
       <r>   -4.9779    1.0000 </r>
       <r>   -4.9775    1.0000 </r>
       <r>   -4.9620    1.0000 </r>
       <r>   -4.9617    1.0000 </r>
       <r>   -4.9569    1.0000 </r>
       <r>   -4.9567    1.0000 </r>
       <r>   -4.9565    1.0000 </r>
       <r>   -4.9353    1.0000 </r>
       <r>   -4.8823    1.0000 </r>
       <r>   -4.8817    1.0000 </r>
       <r>   -4.8816    1.0000 </r>
       <r>   -4.8537    1.0000 </r>
       <r>   -4.8535    1.0000 </r>
       <r>   -4.8532    1.0000 </r>
       <r>   -4.8405    1.0000 </r>
       <r>   -4.8249    1.0000 </r>
       <r>   -4.8248    1.0000 </r>
       <r>   -4.8119    1.0000 </r>
       <r>   -4.8115    1.0000 </r>
       <r>   -4.8112    1.0000 </r>
       <r>   -4.7489    1.0000 </r>
       <r>   -4.7489    1.0000 </r>
       <r>   -4.7489    1.0000 </r>
       <r>   -4.7059    1.0000 </r>
       <r>   -4.7057    1.0000 </r>
       <r>   -4.7057    1.0000 </r>
       <r>   -4.7029    1.0000 </r>
       <r>   -4.6943    1.0000 </r>
       <r>   -4.6942    1.0000 </r>
       <r>   -4.6216    1.0000 </r>
       <r>   -4.6212    1.0000 </r>
       <r>   -4.6210    1.0000 </r>
       <r>   -4.5865    1.0000 </r>
       <r>   -4.5858    1.0000 </r>
       <r>   -4.5853    1.0000 </r>
       <r>   -4.5815    1.0000 </r>
       <r>   -4.5779    1.0000 </r>
       <r>   -4.5777    1.0000 </r>
       <r>   -4.5452    1.0000 </r>
       <r>   -4.5389    1.0000 </r>
       <r>   -4.5386    1.0000 </r>
       <r>   -4.5384    1.0000 </r>
       <r>   -4.5383    1.0000 </r>
       <r>   -4.5380    1.0000 </r>
       <r>   -4.5279    1.0000 </r>
       <r>   -4.5276    1.0000 </r>
       <r>   -4.5276    1.0000 </r>
       <r>   -4.5038    1.0000 </r>
       <r>   -4.5036    1.0000 </r>
       <r>   -4.5031    1.0000 </r>
       <r>   -4.4603    1.0000 </r>
       <r>   -4.4603    1.0000 </r>
       <r>   -4.4602    1.0000 </r>
       <r>   -4.4547    1.0000 </r>
       <r>   -4.4545    1.0000 </r>
       <r>   -4.4544    1.0000 </r>
       <r>   -4.4466    1.0000 </r>
       <r>   -4.4464    1.0000 </r>
       <r>   -4.4456    1.0000 </r>
       <r>   -4.4060    1.0000 </r>
       <r>   -4.4059    1.0000 </r>
       <r>   -4.4056    1.0000 </r>
       <r>   -4.3889    1.0000 </r>
       <r>   -4.3887    1.0000 </r>
       <r>   -4.3498    1.0000 </r>
       <r>   -4.3496    1.0000 </r>
       <r>   -4.3487    1.0000 </r>
       <r>   -4.3375    1.0000 </r>
       <r>   -4.2426    1.0000 </r>
       <r>   -4.2426    1.0000 </r>
       <r>   -4.2290    1.0000 </r>
       <r>   -4.2283    1.0000 </r>
       <r>   -4.2280    1.0000 </r>
       <r>   -4.2199    1.0000 </r>
       <r>   -4.2196    1.0000 </r>
       <r>   -4.2193    1.0000 </r>
       <r>   -4.2177    1.0000 </r>
       <r>   -4.2173    1.0000 </r>
       <r>   -4.2172    1.0000 </r>
       <r>   -4.2148    1.0000 </r>
       <r>   -4.2140    1.0000 </r>
       <r>   -4.2137    1.0000 </r>
       <r>   -4.2114    1.0000 </r>
       <r>   -4.2112    1.0000 </r>
       <r>   -4.2109    1.0000 </r>
       <r>   -4.1796    1.0000 </r>
       <r>   -4.1793    1.0000 </r>
       <r>   -4.1792    1.0000 </r>
       <r>   -4.0969    1.0000 </r>
       <r>   -4.0967    1.0000 </r>
       <r>   -4.0966    1.0000 </r>
       <r>   -4.0785    1.0000 </r>
       <r>   -4.0783    1.0000 </r>
       <r>   -4.0781    1.0000 </r>
       <r>   -4.0762    1.0000 </r>
       <r>   -4.0761    1.0000 </r>
       <r>   -4.0758    1.0000 </r>
       <r>   -4.0569    1.0000 </r>
       <r>   -4.0564    1.0000 </r>
       <r>   -4.0563    1.0000 </r>
       <r>   -4.0440    1.0000 </r>
       <r>   -4.0438    1.0000 </r>
       <r>   -4.0436    1.0000 </r>
       <r>   -4.0168    1.0000 </r>
       <r>   -4.0043    1.0000 </r>
       <r>   -4.0042    1.0000 </r>
       <r>   -4.0032    1.0000 </r>
       <r>   -3.9696    1.0000 </r>
       <r>   -3.9696    1.0000 </r>
       <r>   -3.9382    1.0000 </r>
       <r>   -3.9379    1.0000 </r>
       <r>   -3.9378    1.0000 </r>
       <r>   -3.9287    1.0000 </r>
       <r>   -3.9287    1.0000 </r>
       <r>   -3.9286    1.0000 </r>
       <r>   -3.9100    1.0000 </r>
       <r>   -3.9094    1.0000 </r>
       <r>   -3.9090    1.0000 </r>
       <r>   -3.8807    1.0000 </r>
       <r>   -3.8792    1.0000 </r>
       <r>   -3.8789    1.0000 </r>
       <r>   -3.8777    1.0000 </r>
       <r>   -3.8767    1.0000 </r>
       <r>   -3.8767    1.0000 </r>
       <r>   -3.8320    1.0000 </r>
       <r>   -3.8309    1.0000 </r>
       <r>   -3.8306    1.0000 </r>
       <r>   -3.8295    1.0000 </r>
       <r>   -3.8121    1.0000 </r>
       <r>   -3.8119    1.0000 </r>
       <r>   -3.8117    1.0000 </r>
       <r>   -3.7982    1.0000 </r>
       <r>   -3.7981    1.0000 </r>
       <r>   -3.7978    1.0000 </r>
       <r>   -3.7861    1.0000 </r>
       <r>   -3.7860    1.0000 </r>
       <r>   -3.7858    1.0000 </r>
       <r>   -3.7747    1.0000 </r>
       <r>   -3.7746    1.0000 </r>
       <r>   -3.7744    1.0000 </r>
       <r>   -3.7507    1.0000 </r>
       <r>   -3.7505    1.0000 </r>
       <r>   -3.7503    1.0000 </r>
       <r>   -3.7090    1.0000 </r>
       <r>   -3.7088    1.0000 </r>
       <r>   -3.7086    1.0000 </r>
       <r>   -3.7070    1.0000 </r>
       <r>   -3.7068    1.0000 </r>
       <r>   -3.7067    1.0000 </r>
       <r>   -3.6825    1.0000 </r>
       <r>   -3.6822    1.0000 </r>
       <r>   -3.6821    1.0000 </r>
       <r>   -3.6767    1.0000 </r>
       <r>   -3.6764    1.0000 </r>
       <r>   -3.6762    1.0000 </r>
       <r>   -3.6686    1.0000 </r>
       <r>   -3.6680    1.0000 </r>
       <r>   -3.6408    1.0000 </r>
       <r>   -3.6404    1.0000 </r>
       <r>   -3.6399    1.0000 </r>
       <r>   -3.6175    1.0000 </r>
       <r>   -3.6158    1.0000 </r>
       <r>   -3.6155    1.0000 </r>
       <r>   -3.6148    1.0000 </r>
       <r>   -3.6025    1.0000 </r>
       <r>   -3.6025    1.0000 </r>
       <r>   -3.6016    1.0000 </r>
       <r>   -3.6009    1.0000 </r>
       <r>   -3.6006    1.0000 </r>
       <r>   -3.5996    1.0000 </r>
       <r>   -3.5970    1.0000 </r>
       <r>   -3.5970    1.0000 </r>
       <r>   -3.5970    1.0000 </r>
       <r>   -3.5808    1.0000 </r>
       <r>   -3.5807    1.0000 </r>
       <r>   -3.5806    1.0000 </r>
       <r>   -3.5503    1.0000 </r>
       <r>   -3.5501    1.0000 </r>
       <r>   -3.5498    1.0000 </r>
       <r>   -3.5378    1.0000 </r>
       <r>   -3.5299    1.0000 </r>
       <r>   -3.5118    1.0000 </r>
       <r>   -3.5114    1.0000 </r>
       <r>   -3.4479    1.0000 </r>
       <r>   -3.4472    1.0000 </r>
       <r>   -3.4472    1.0000 </r>
       <r>   -3.4418    1.0000 </r>
       <r>   -3.4339    1.0000 </r>
       <r>   -3.4337    1.0000 </r>
       <r>   -3.4335    1.0000 </r>
       <r>   -3.4285    1.0000 </r>
       <r>   -3.4281    1.0000 </r>
       <r>   -3.4278    1.0000 </r>
       <r>   -3.4193    1.0000 </r>
       <r>   -3.4190    1.0000 </r>
       <r>   -3.4186    1.0000 </r>
       <r>   -3.4178    1.0000 </r>
       <r>   -3.4178    1.0000 </r>
       <r>   -3.4155    1.0000 </r>
       <r>   -3.4153    1.0000 </r>
       <r>   -3.4151    1.0000 </r>
       <r>   -3.4098    1.0000 </r>
       <r>   -3.3983    1.0000 </r>
       <r>   -3.3981    1.0000 </r>
       <r>   -3.3978    1.0000 </r>
       <r>   -3.3864    1.0000 </r>
       <r>   -3.3864    1.0000 </r>
       <r>   -3.3750    1.0000 </r>
       <r>   -3.3635    1.0000 </r>
       <r>   -3.3631    1.0000 </r>
       <r>   -3.3619    1.0000 </r>
       <r>   -3.3497    1.0000 </r>
       <r>   -3.3497    1.0000 </r>
       <r>   -3.3463    1.0000 </r>
       <r>   -3.3463    1.0000 </r>
       <r>   -3.3463    1.0000 </r>
       <r>   -3.3361    1.0000 </r>
       <r>   -3.3358    1.0000 </r>
       <r>   -3.3356    1.0000 </r>
       <r>   -3.3146    1.0000 </r>
       <r>   -3.3145    1.0000 </r>
       <r>   -3.3046    1.0000 </r>
       <r>   -3.3043    1.0000 </r>
       <r>   -3.3042    1.0000 </r>
[...]
       <r>   -14.5222     0.0000     8.0000 </r>
       <r>   -14.4280     0.0000     8.0000 </r>
       <r>   -14.3338     0.0000     8.0000 </r>
       <r>   -14.2396     0.0000     8.0000 </r>
       <r>   -14.1454     0.0000     8.0000 </r>
       <r>   -14.0512     0.0000     8.0000 </r>
       <r>   -13.9570     0.0000     8.0000 </r>
       <r>   -13.8629     0.0000     8.0000 </r>
       <r>   -13.7687     0.0000     8.0000 </r>
       <r>   -13.6745     0.0000     8.0000 </r>
       <r>   -13.5803     0.0000     8.0000 </r>
       <r>   -13.4861     0.0000     8.0000 </r>
       <r>   -13.3919     0.0000     8.0000 </r>
       <r>   -13.2977     0.0000     8.0000 </r>
       <r>   -13.2035     0.0000     8.0000 </r>
       <r>   -13.1094     0.0000     8.0000 </r>
       <r>   -13.0152     0.0000     8.0000 </r>
       <r>   -12.9210     0.0000     8.0000 </r>
       <r>   -12.8268     0.0000     8.0000 </r>
       <r>   -12.7326     0.0000     8.0000 </r>
       <r>   -12.6384     0.0000     8.0000 </r>
       <r>   -12.5442     0.0000     8.0000 </r>
       <r>   -12.4500     0.0000     8.0000 </r>
       <r>   -12.3559     0.0000     8.0000 </r>
       <r>   -12.2617     0.0000     8.0000 </r>
       <r>   -12.1675     0.0000     8.0000 </r>
       <r>   -12.0733     0.0000     8.0000 </r>
       <r>   -11.9791     0.0000     8.0000 </r>
       <r>   -11.8849     0.0000     8.0000 </r>
       <r>   -11.7907     0.0000     8.0000 </r>
       <r>   -11.6965     0.0000     8.0000 </r>
       <r>   -11.6024     0.0000     8.0000 </r>
       <r>   -11.5082     0.0000     8.0000 </r>
       <r>   -11.4140     0.0000     8.0000 </r>
       <r>   -11.3198     0.0000     8.0000 </r>
       <r>   -11.2256     0.0000     8.0000 </r>
       <r>   -11.1314     0.0000     8.0000 </r>
       <r>   -11.0372     0.0000     8.0000 </r>
       <r>   -10.9431     0.0000     8.0000 </r>
       <r>   -10.8489     0.0000     8.0000 </r>
       <r>   -10.7547     0.0000     8.0000 </r>
       <r>   -10.6605     0.0000     8.0000 </r>
       <r>   -10.5663     0.0000     8.0000 </r>
       <r>   -10.4721     0.0000     8.0000 </r>
       <r>   -10.3779     0.0000     8.0000 </r>
       <r>   -10.2837     0.0000     8.0000 </r>
       <r>   -10.1896     0.0000     8.0000 </r>
       <r>   -10.0954     0.0000     8.0000 </r>
       <r>   -10.0012     0.0000     8.0000 </r>
       <r>    -9.9070     0.0000     8.0000 </r>
       <r>    -9.8128     0.0000     8.0000 </r>
       <r>    -9.7186     0.0000     8.0000 </r>
       <r>    -9.6244     0.0000     8.0000 </r>
       <r>    -9.5302     0.0193     8.0018 </r>
       <r>    -9.4361     0.8999     8.0866 </r>
       <r>    -9.3419     3.2790     8.3954 </r>
       <r>    -9.2477     5.0080     8.8671 </r>
       <r>    -9.1535     0.2793     8.8934 </r>
       <r>    -9.0593     5.8597     9.4453 </r>
       <r>    -8.9651     6.2447    10.0335 </r>
       <r>    -8.8709     6.4043    10.6367 </r>
       <r>    -8.7767     6.2119    11.2218 </r>
       <r>    -8.6826     0.5902    11.2774 </r>
       <r>    -8.5884    15.4763    12.7350 </r>
       <r>    -8.4942    11.2434    13.7940 </r>
       <r>    -8.4000     6.3278    14.3900 </r>
       <r>    -8.3058     6.1930    14.9733 </r>
       <r>    -8.2116     0.7956    15.0482 </r>
       <r>    -8.1174    12.8235    16.2561 </r>
       <r>    -8.0233    14.6923    17.6399 </r>
       <r>    -7.9291    13.1792    18.8812 </r>
       <r>    -7.8349    19.6729    20.7341 </r>
       <r>    -7.7407     6.8873    21.3828 </r>
       <r>    -7.6465     5.9584    21.9440 </r>
       <r>    -7.5523    13.0119    23.1696 </r>
       <r>    -7.4581    15.7565    24.6536 </r>
       <r>    -7.3639    16.5464    26.2121 </r>
       <r>    -7.2698     8.8226    27.0431 </r>
       <r>    -7.1756    20.5741    28.9809 </r>
       <r>    -7.0814    16.2879    30.5150 </r>
       <r>    -6.9872    13.2204    31.7602 </r>
       <r>    -6.8930    16.6567    33.3290 </r>
       <r>    -6.7988    31.8160    36.3257 </r>
       <r>    -6.7046    15.1573    37.7533 </r>
       <r>    -6.6104    18.4645    39.4924 </r>
       <r>    -6.5163    13.4275    40.7571 </r>
       <r>    -6.4221    24.4310    43.0582 </r>
       <r>    -6.3279    23.6641    45.2871 </r>
       <r>    -6.2337    18.7167    47.0499 </r>
       <r>    -6.1395    46.5373    51.4331 </r>
       <r>    -6.0453    20.9762    53.4088 </r>
       <r>    -5.9511    45.9552    57.7372 </r>
       <r>    -5.8570    21.2114    59.7351 </r>
       <r>    -5.7628    20.5486    61.6705 </r>
       <r>    -5.6686    59.6905    67.2925 </r>
       <r>    -5.5744    86.9438    75.4815 </r>
       <r>    -5.4802    74.2167    82.4718 </r>
       <r>    -5.3860    60.3847    88.1592 </r>
       <r>    -5.2918    95.1641    97.1225 </r>
       <r>    -5.1976    89.3968   105.5425 </r>
       <r>    -5.1035   108.0014   115.7148 </r>
       <r>    -5.0093   119.1442   126.9367 </r>
       <r>    -4.9151   145.2807   140.6202 </r>
       <r>    -4.8209   127.6669   152.6448 </r>
       <r>    -4.7267   126.6752   164.5760 </r>
       <r>    -4.6325   166.2075   180.2306 </r>
       <r>    -4.5383   204.3864   199.4811 </r>
       <r>    -4.4441   241.1023   222.1899 </r>
       <r>    -4.3500   284.6470   248.9999 </r>
       <r>    -4.2558   254.0058   272.9240 </r>
       <r>    -4.1616   219.8010   293.6264 </r>
       <r>    -4.0674   206.6805   313.0930 </r>
       <r>    -3.9732   219.4747   333.7647 </r>
       <r>    -3.8790   272.6954   359.4491 </r>
       <r>    -3.7848   278.3645   385.6674 </r>
       <r>    -3.6906   321.7072   415.9681 </r>
       <r>    -3.5965   318.4470   445.9617 </r>
       <r>    -3.5023   325.2391   476.5950 </r>
       <r>    -3.4081   392.7331   513.5854 </r>
       <r>    -3.3139   477.6805   558.5767 </r>
       <r>    -3.2197   505.6327   606.2008 </r>
       <r>    -3.1255   438.1395   647.4679 </r>
       <r>    -3.0313   452.2031   690.0596 </r>
       <r>    -2.9372   326.2886   720.7918 </r>
       <r>    -2.8430   362.7758   754.9605 </r>
       <r>    -2.7488   347.1057   787.6534 </r>
       <r>    -2.6546   410.1917   826.2882 </r>
       <r>    -2.5604   409.6748   864.8743 </r>
       <r>    -2.4662   388.7982   901.4940 </r>
       <r>    -2.3720   429.0835   941.9082 </r>
       <r>    -2.2778   419.8247   981.4502 </r>
       <r>    -2.1837   440.5246  1022.9419 </r>
       <r>    -2.0895   530.5264  1072.9107 </r>
       <r>    -1.9953   616.2032  1130.9491 </r>
       <r>    -1.9011   434.7223  1171.8943 </r>
       <r>    -1.8069   162.1889  1187.1704 </r>
       <r>    -1.7127    69.5174  1193.7180 </r>
       <r>    -1.6185    52.2653  1198.6407 </r>
       <r>    -1.5243    58.6074  1204.1608 </r>
       <r>    -1.4302    59.3473  1209.7506 </r>
       <r>    -1.3360    89.5772  1218.1876 </r>
       <r>    -1.2418    59.4171  1223.7839 </r>
       <r>    -1.1476    35.9731  1227.1721 </r>
       <r>    -1.0534    11.6010  1228.2648 </r>
       <r>    -0.9592    47.7537  1232.7625 </r>
       <r>    -0.8650    38.0115  1236.3427 </r>
       <r>    -0.7708    44.0107  1240.4880 </r>
       <r>    -0.6767    46.9714  1244.9121 </r>
       <r>    -0.5825    58.1262  1250.3868 </r>
       <r>    -0.4883    20.2526  1252.2943 </r>
       <r>    -0.3941    34.8208  1255.5740 </r>
       <r>    -0.2999    37.5845  1259.1140 </r>
       <r>    -0.2057    41.2662  1263.0007 </r>
       <r>    -0.1115    23.6346  1265.2268 </r>
       <r>    -0.0174    35.1041  1268.5331 </r>
       <r>     0.0768    48.6989  1273.1199 </r>
       <r>     0.1710    42.4139  1277.1148 </r>
       <r>     0.2652    13.0212  1278.3412 </r>
       <r>     0.3594    25.5483  1280.7475 </r>
       <r>     0.4536    43.3875  1284.8341 </r>
       <r>     0.5478    34.0640  1288.0425 </r>
       <r>     0.6420    28.5137  1290.7281 </r>
       <r>     0.7361    54.1578  1295.8291 </r>
       <r>     0.8303    35.4628  1299.1692 </r>
       <r>     0.9245    31.3462  1302.1216 </r>
       <r>     1.0187    29.1708  1304.8691 </r>
       <r>     1.1129    29.0929  1307.6093 </r>
       <r>     1.2071    47.1747  1312.0525 </r>
       <r>     1.3013    19.5391  1313.8929 </r>
       <r>     1.3955    20.2530  1315.8004 </r>
       <r>     1.4896    37.1688  1319.3012 </r>
       <r>     1.5838    32.1461  1322.3290 </r>
       <r>     1.6780    27.9451  1324.9611 </r>
       <r>     1.7722    20.3456  1326.8774 </r>
       <r>     1.8664    41.3769  1330.7745 </r>
       <r>     1.9606    37.2524  1334.2832 </r>
       <r>     2.0548    39.4239  1337.9964 </r>
       <r>     2.1490    24.6418  1340.3174 </r>
       <r>     2.2431    37.9124  1343.8882 </r>
       <r>     2.3373    24.6673  1346.2116 </r>
       <r>     2.4315    22.5000  1348.3308 </r>
       <r>     2.5257    14.7727  1349.7222 </r>
       <r>     2.6199    11.7244  1350.8265 </r>
       <r>     2.7141    19.7190  1352.6837 </r>
       <r>     2.8083    32.5885  1355.7532 </r>
       <r>     2.9024    28.0229  1358.3926 </r>
       <r>     2.9966    27.1216  1360.9471 </r>
       <r>     3.0908    19.5491  1362.7883 </r>
       <r>     3.1850    23.3748  1364.9899 </r>
       <r>     3.2792    21.1206  1366.9792 </r>
       <r>     3.3734     8.7478  1367.8032 </r>
       <r>     3.4676    30.5795  1370.6833 </r>
       <r>     3.5618    32.0019  1373.6975 </r>
       <r>     3.6559    27.7899  1376.3150 </r>
       <r>     3.7501     7.1572  1376.9891 </r>
       <r>     3.8443    21.6836  1379.0314 </r>
       <r>     3.9385    44.4400  1383.2171 </r>
       <r>     4.0327    32.5481  1386.2827 </r>
       <r>     4.1269    41.9421  1390.2331 </r>
       <r>     4.2211    50.9787  1395.0346 </r>
       <r>     4.3153    35.2929  1398.3588 </r>
       <r>     4.4094    18.4724  1400.0986 </r>
       <r>     4.5036    22.9831  1402.2633 </r>
       <r>     4.5978    31.7729  1405.2559 </r>
       <r>     4.6920    37.9134  1408.8269 </r>
       <r>     4.7862    40.9330  1412.6822 </r>
       <r>     4.8804    47.7107  1417.1760 </r>
       <r>     4.9746    38.2479  1420.7784 </r>
       <r>     5.0688    40.1071  1424.5560 </r>
       <r>     5.1629    37.1383  1428.0539 </r>
       <r>     5.2571    28.6733  1430.7546 </r>
       <r>     5.3513    59.5839  1436.3666 </r>
       <r>     5.4455    37.1195  1439.8628 </r>
       <r>     5.5397    54.3343  1444.9804 </r>
       <r>     5.6339    34.0035  1448.1831 </r>
       <r>     5.7281    34.0027  1451.3857 </r>
       <r>     5.8222    33.9620  1454.5845 </r>
       <r>     5.9164    32.9395  1457.6869 </r>
       <r>     6.0106    61.5774  1463.4867 </r>
       <r>     6.1048    54.3106  1468.6021 </r>
       <r>     6.1990    44.6792  1472.8103 </r>
       <r>     6.2932    40.3792  1476.6135 </r>
       <r>     6.3874    36.2454  1480.0273 </r>
       <r>     6.4816    51.3723  1484.8660 </r>
       <r>     6.5757    42.8505  1488.9019 </r>
       <r>     6.6699    35.3163  1492.2283 </r>
       <r>     6.7641    37.0589  1495.7187 </r>
       <r>     6.8583    59.5332  1501.3260 </r>
       <r>     6.9525    48.9782  1505.9391 </r>
       <r>     7.0467    36.5588  1509.3825 </r>
       <r>     7.1409    26.8547  1511.9118 </r>
       <r>     7.2351     0.9360  1512.0000 </r>
       <r>     7.3292     0.0001  1512.0000 </r>
       <r>     7.4234     0.0000  1512.0000 </r>
       <r>     7.5176     0.0000  1512.0000 </r>
       <r>     7.6118     0.0000  1512.0000 </r>
       <r>     7.7060     0.0000  1512.0000 </r>
       <r>     7.8002     0.0000  1512.0000 </r>
       <r>     7.8944     0.0000  1512.0000 </r>
       <r>     7.9886     0.0000  1512.0000 </r>
       <r>     8.0827     0.0000  1512.0000 </r>
       <r>     8.1769     0.0000  1512.0000 </r>
       <r>     8.2711     0.0000  1512.0000 </r>
       <r>     8.3653     0.0000  1512.0000 </r>
      </set>
     </set>
    </array>
   </total>
  </dos>
 </calculation>
 <structure name="finalpos" >
  <crystal>
   <varray name="basis" >
    <v>      10.28518105       0.00000000       0.00000000 </v>
    <v>       5.14259052       8.90722807       0.00000000 </v>
    <v>       0.00000000       0.00000000      27.79016876 </v>
   </varray>
   <i name="volume">   2545.92553775 </i>
   <varray name="rec_basis" >
    <v>       0.09722726      -0.05613419       0.00000000 </v>
    <v>       0.00000000       0.11226837       0.00000000 </v>
    <v>       0.00000000       0.00000000       0.03598395 </v>
   </varray>
  </crystal>
  <varray name="positions" >
   <v>       0.00000000       0.00000000       0.22663990 </v>
   <v>       0.00000000       0.50000000       0.22663990 </v>
   <v>       0.50000000       0.00000000       0.22663990 </v>
   <v>       0.50000000       0.50000000       0.22663990 </v>
   <v>       0.00000000       0.25000000       0.22663990 </v>
   <v>       0.00000000       0.75000000       0.22663990 </v>
   <v>       0.50000000       0.25000000       0.22663990 </v>
   <v>       0.50000000       0.75000000       0.22663990 </v>
   <v>       0.25000000       0.00000000       0.22663990 </v>
   <v>       0.25000000       0.50000000       0.22663990 </v>
   <v>       0.75000000       0.00000000       0.22663990 </v>
   <v>       0.75000000       0.50000000       0.22663990 </v>
   <v>       0.25000000       0.25000000       0.22663990 </v>
   <v>       0.25000000       0.75000000       0.22663990 </v>
   <v>       0.75000000       0.25000000       0.22663990 </v>
   <v>       0.75000000       0.75000000       0.22663990 </v>
   <v>       0.16666666       0.16666666       0.30218653 </v>
   <v>       0.16666666       0.66666666       0.30218653 </v>
   <v>       0.66666666       0.16666666       0.30218653 </v>
   <v>       0.66666666       0.66666666       0.30218653 </v>
   <v>       0.16666666       0.41666666       0.30218653 </v>
   <v>       0.16666666       0.91666666       0.30218653 </v>
   <v>       0.66666666       0.41666666       0.30218653 </v>
   <v>       0.66666666       0.91666666       0.30218653 </v>
   <v>       0.41666666       0.16666666       0.30218653 </v>
   <v>       0.41666666       0.66666666       0.30218653 </v>
   <v>       0.91666666       0.16666666       0.30218653 </v>
   <v>       0.91666666       0.66666666       0.30218653 </v>
   <v>       0.41666666       0.41666666       0.30218653 </v>
   <v>       0.41666666       0.91666666       0.30218653 </v>
   <v>       0.91666666       0.41666666       0.30218653 </v>
   <v>       0.91666666       0.91666666       0.30218653 </v>
   <v>       0.08333333       0.08333333       0.37716320 </v>
   <v>       0.08333333       0.58333333       0.37716320 </v>
   <v>       0.58333333       0.08333333       0.37716320 </v>
   <v>       0.58333333       0.58333333       0.37716320 </v>
   <v>       0.08351614       0.33324190       0.37729758 </v>
   <v>       0.08351614       0.83324190       0.37729758 </v>
   <v>       0.58351614       0.33324190       0.37729758 </v>
   <v>       0.58351614       0.83324190       0.37729758 </v>
   <v>       0.33324190       0.08351614       0.37729758 </v>
   <v>       0.33324190       0.58351614       0.37729758 </v>
   <v>       0.83324190       0.08351614       0.37729758 </v>
   <v>       0.83324190       0.58351614       0.37729758 </v>
   <v>       0.33324190       0.33324190       0.37729758 </v>
   <v>       0.33324190       0.83324190       0.37729758 </v>
   <v>       0.83324190       0.33324190       0.37729758 </v>
   <v>       0.83324190       0.83324190       0.37729758 </v>
   <v>       0.00012997       0.00012997       0.45242342 </v>
   <v>       0.00012997       0.50012997       0.45242342 </v>
   <v>       0.50012997       0.00012997       0.45242342 </v>
   <v>       0.50012997       0.50012997       0.45242342 </v>
   <v>       0.00012997       0.24974005       0.45242342 </v>
   <v>       0.00012997       0.74974005       0.45242342 </v>
   <v>       0.50012997       0.24974005       0.45242342 </v>
   <v>       0.50012997       0.74974005       0.45242342 </v>
   <v>       0.24974005       0.00012997       0.45242342 </v>
   <v>       0.24974005       0.50012997       0.45242342 </v>
   <v>       0.74974005       0.00012997       0.45242342 </v>
   <v>       0.74974005       0.50012997       0.45242342 </v>
   <v>       0.25000000       0.25000000       0.45288750 </v>
   <v>       0.25000000       0.75000000       0.45288750 </v>
   <v>       0.75000000       0.25000000       0.45288750 </v>
   <v>       0.75000000       0.75000000       0.45288750 </v>
   <v>       0.16660598       0.16660598       0.52813907 </v>
   <v>       0.16660598       0.66660598       0.52813907 </v>
   <v>       0.66660598       0.16660598       0.52813907 </v>
   <v>       0.66660598       0.66660598       0.52813907 </v>
   <v>       0.16660598       0.41678801       0.52813907 </v>
   <v>       0.16660598       0.91678801       0.52813907 </v>
   <v>       0.66660598       0.41678801       0.52813907 </v>
   <v>       0.66660598       0.91678801       0.52813907 </v>
   <v>       0.41678801       0.16660598       0.52813907 </v>
   <v>       0.41678801       0.66660598       0.52813907 </v>
   <v>       0.91678801       0.16660598       0.52813907 </v>
   <v>       0.91678801       0.66660598       0.52813907 </v>
   <v>       0.41529166       0.41666666       0.52691050 </v>
   <v>       0.41666666       0.91666666       0.52741939 </v>
   <v>       0.91666666       0.41666666       0.52741939 </v>
   <v>       0.91666666       0.91666666       0.52741939 </v>
   <v>       0.08333333       0.08333333       0.60253339 </v>
   <v>       0.08333333       0.58333333       0.60253339 </v>
   <v>       0.58333333       0.08333333       0.60253339 </v>
   <v>       0.58333333       0.58333333       0.60253339 </v>
   <v>       0.08130935       0.33434529       0.60320464 </v>
   <v>       0.08130935       0.83434529       0.60320464 </v>
   <v>       0.58130935       0.33434529       0.60320464 </v>
   <v>       0.58130935       0.83434529       0.60320464 </v>
   <v>       0.33434529       0.08130935       0.60320464 </v>
   <v>       0.33434529       0.58130935       0.60320464 </v>
   <v>       0.83434529       0.08130935       0.60320464 </v>
   <v>       0.83434529       0.58130935       0.60320464 </v>
   <v>       0.33434529       0.33434529       0.60320464 </v>
   <v>       0.33434529       0.83434529       0.60320464 </v>
   <v>       0.83434529       0.33434529       0.60320464 </v>
   <v>       0.83434529       0.83434529       0.60320464 </v>
   <v>       0.49714648       0.49714648       0.68057248 </v>
   <v>       0.49714648       0.99714648       0.68057248 </v>
   <v>       0.99714648       0.49714648       0.68057248 </v>
   <v>       0.99714648       0.99714648       0.68057248 </v>
   <v>       0.49714648       0.25570704       0.68057248 </v>
   <v>       0.49714648       0.75570704       0.68057248 </v>
   <v>       0.99714648       0.25570704       0.68057248 </v>
   <v>       0.99714648       0.75570704       0.68057248 </v>
   <v>       0.25570704       0.49714648       0.68057248 </v>
   <v>       0.25570704       0.99714648       0.68057248 </v>
   <v>       0.75570704       0.49714648       0.68057248 </v>
   <v>       0.75570704       0.99714648       0.68057248 </v>
   <v>       0.25000000       0.25000000       0.67480871 </v>
   <v>       0.25000000       0.75000000       0.67480871 </v>
   <v>       0.75000000       0.25000000       0.67480871 </v>
   <v>       0.75000000       0.75000000       0.67480871 </v>
   <v>       0.08333333       0.08333333       0.72043888 </v>
   <v>       0.08333333       0.58333333       0.72043888 </v>
   <v>       0.58333333       0.08333333       0.72043888 </v>
   <v>       0.58333333       0.58333333       0.72043888 </v>
  </varray>
 </structure>
</modeling>
