<?xml version="1.0" encoding="ISO-8859-1"?>
<modeling>
 <generator>
  <i name="program" type="string">vasp </i>
  <i name="version" type="string">5.4.4.18Apr17-6-g9f103f2a35  </i>
  <i name="subversion" type="string">(build Feb 09 2021 16:27:36) complex            parallel </i>
  <i name="platform" type="string">IFC15_impi </i>
  <i name="date" type="string">2021 04 29 </i>
  <i name="time" type="string">03:14:21 </i>
 </generator>
 <incar>
  <i type="int" name="ISTART">     0</i>
  <i type="string" name="PREC">a</i>
  <i type="logical" name="ADDGRID"> T  </i>
  <i type="int" name="NELM">   300</i>
  <i type="int" name="NELMIN">     5</i>
  <i type="int" name="IBRION">    -1</i>
  <i name="EDIFF">      0.00000100</i>
  <i name="ENCUT">    500.00000000</i>
  <i type="logical" name="LREAL"> F  </i>
  <i type="int" name="ISMEAR">     0</i>
  <i name="SIGMA">      0.05000000</i>
  <i type="logical" name="LWAVE"> F  </i>
  <i type="logical" name="LCHARG"> F  </i>
  <v type="int" name="KPOINT_BSE">    -1     0     0     0</v>
  <i type="int" name="NELM">   300</i>
 </incar>
 <structure name="primitive_cell" >
  <crystal>
   <varray name="basis" >
    <v>      10.28518105       0.00000000       0.00000000 </v>
    <v>       5.14259052       8.90722807       0.00000000 </v>
    <v>       0.00000000       0.00000000      27.79016876 </v>
   </varray>
   <i name="volume">   2545.92553775 </i>
   <varray name="rec_basis" >
    <v>       0.09722726      -0.05613419       0.00000000 </v>
    <v>       0.00000000       0.11226837       0.00000000 </v>
    <v>       0.00000000       0.00000000       0.03598395 </v>
   </varray>
  </crystal>
  <varray name="positions" >
   <v>       0.00000000       0.00000000       0.22663990 </v>
   <v>       0.16666666      -0.08333334       0.30218653 </v>
   <v>      -0.08333334       0.16666666       0.30218653 </v>
   <v>       0.25000000       0.00000000       0.22663990 </v>
   <v>       0.00000000      -0.25000000       0.22663990 </v>
   <v>       0.25000000      -0.25000000       0.22663990 </v>
   <v>      -0.25000000       0.25000000       0.22663990 </v>
   <v>       0.00000000       0.25000000       0.22663990 </v>
   <v>      -0.25000000       0.00000000       0.22663990 </v>
   <v>      -0.08333334      -0.08333334       0.30218653 </v>
   <v>       0.16666666       0.16666666       0.30218653 </v>
   <v>       0.16666666      -0.33333334       0.30218653 </v>
   <v>      -0.33333334       0.16666666       0.30218653 </v>
   <v>       0.08333333       0.08333333       0.37716320 </v>
   <v>       0.08351614      -0.16675810       0.37729758 </v>
   <v>      -0.16675810       0.08351614       0.37729758 </v>
   <v>       0.41666666      -0.08333334       0.30218653 </v>
   <v>      -0.08333334       0.41666666       0.30218653 </v>
   <v>      -0.33333334       0.41666666       0.30218653 </v>
   <v>       0.41666666      -0.33333334       0.30218653 </v>
   <v>      -0.50000000       0.25000000       0.22663990 </v>
   <v>       0.25000000       0.25000000       0.22663990 </v>
   <v>       0.25000000      -0.50000000       0.22663990 </v>
   <v>      -0.25000000      -0.50000000       0.22663990 </v>
   <v>      -0.25000000      -0.25000000       0.22663990 </v>
   <v>      -0.50000000      -0.25000000       0.22663990 </v>
   <v>      -0.08333334      -0.33333334       0.30218653 </v>
   <v>      -0.33333334      -0.08333334       0.30218653 </v>
   <v>       0.33324190      -0.16675810       0.37729758 </v>
   <v>      -0.16675810       0.33324190       0.37729758 </v>
   <v>      -0.16675810      -0.16675810       0.37729758 </v>
   <v>       0.00000000      -0.50000000       0.22663990 </v>
   <v>      -0.50000000      -0.50000000       0.22663990 </v>
   <v>      -0.50000000       0.00000000       0.22663990 </v>
   <v>      -0.41666667       0.08333333       0.37716320 </v>
   <v>       0.08333333      -0.41666667       0.37716320 </v>
   <v>       0.33324190      -0.41648386       0.37729758 </v>
   <v>      -0.41648386       0.33324190       0.37729758 </v>
   <v>       0.33324190       0.08351614       0.37729758 </v>
   <v>       0.08351614       0.33324190       0.37729758 </v>
   <v>       0.16666666       0.41666666       0.30218653 </v>
   <v>       0.41666666       0.16666666       0.30218653 </v>
   <v>       0.41666666       0.41666666       0.30218653 </v>
   <v>       0.00012997       0.00012997       0.45242342 </v>
   <v>      -0.33333334      -0.33333334       0.30218653 </v>
   <v>       0.00012997       0.24974005       0.45242342 </v>
   <v>       0.24974005       0.00012997       0.45242342 </v>
   <v>      -0.25025995       0.00012997       0.45242342 </v>
   <v>       0.00012997      -0.25025995       0.45242342 </v>
   <v>       0.25000000      -0.25000000       0.45288750 </v>
   <v>      -0.25000000       0.25000000       0.45288750 </v>
   <v>      -0.41666667      -0.41666667       0.37716320 </v>
   <v>      -0.41648386      -0.16675810       0.37729758 </v>
   <v>      -0.16675810      -0.41648386       0.37729758 </v>
   <v>       0.33324190       0.33324190       0.37729758 </v>
   <v>       0.24974005      -0.49987003       0.45242342 </v>
   <v>      -0.49987003       0.24974005       0.45242342 </v>
   <v>      -0.49987003      -0.25025995       0.45242342 </v>
   <v>      -0.25025995      -0.49987003       0.45242342 </v>
   <v>       0.25000000       0.25000000       0.45288750 </v>
   <v>      -0.25000000      -0.25000000       0.45288750 </v>
   <v>       0.00012997      -0.49987003       0.45242342 </v>
   <v>      -0.49987003       0.00012997       0.45242342 </v>
   <v>      -0.49987003      -0.49987003       0.45242342 </v>
   <v>      -0.08333334      -0.08333334      -0.47258061 </v>
   <v>      -0.08321199       0.16660598      -0.47186093 </v>
   <v>       0.16660598      -0.08321199      -0.47186093 </v>
   <v>       0.16523098       0.16660598      -0.47236982 </v>
   <v>      -0.33339402       0.16660598      -0.47186093 </v>
   <v>       0.16660598      -0.33339402      -0.47186093 </v>
   <v>       0.41666666      -0.08333334      -0.47258061 </v>
   <v>      -0.08333334       0.41666666      -0.47258061 </v>
   <v>      -0.33339402      -0.08321199      -0.47186093 </v>
   <v>      -0.08321199      -0.33339402      -0.47186093 </v>
   <v>      -0.33339402       0.41678801      -0.47186093 </v>
   <v>       0.41678801      -0.33339402      -0.47186093 </v>
   <v>       0.41666666       0.41666666      -0.47258061 </v>
   <v>       0.16660598       0.41678801      -0.47186093 </v>
   <v>       0.41678801       0.16660598      -0.47186093 </v>
   <v>      -0.33339402      -0.33339402      -0.47186093 </v>
   <v>       0.08333333       0.08333333      -0.39746661 </v>
   <v>      -0.16565471       0.08130935      -0.39679536 </v>
   <v>       0.08130935      -0.16565471      -0.39679536 </v>
   <v>      -0.16565471      -0.16565471      -0.39679536 </v>
   <v>      -0.16565471       0.33434529      -0.39679536 </v>
   <v>       0.33434529      -0.16565471      -0.39679536 </v>
   <v>      -0.41666667       0.08333333      -0.39746661 </v>
   <v>       0.08333333      -0.41666667      -0.39746661 </v>
   <v>       0.08130935       0.33434529      -0.39679536 </v>
   <v>       0.33434529       0.08130935      -0.39679536 </v>
   <v>       0.33434529      -0.41869065      -0.39679536 </v>
   <v>      -0.41869065       0.33434529      -0.39679536 </v>
   <v>      -0.41666667      -0.41666667      -0.39746661 </v>
   <v>      -0.41869065      -0.16565471      -0.39679536 </v>
   <v>      -0.16565471      -0.41869065      -0.39679536 </v>
   <v>       0.33434529       0.33434529      -0.39679536 </v>
   <v>      -0.00285352      -0.00285352      -0.31942752 </v>
   <v>       0.25000000      -0.25000000      -0.32519129 </v>
   <v>      -0.25000000       0.25000000      -0.32519129 </v>
   <v>      -0.24429296      -0.00285352      -0.31942752 </v>
   <v>      -0.00285352      -0.24429296      -0.31942752 </v>
   <v>      -0.00285352       0.25570704      -0.31942752 </v>
   <v>       0.25570704      -0.00285352      -0.31942752 </v>
   <v>       0.25000000       0.25000000      -0.32519129 </v>
   <v>      -0.25000000      -0.25000000      -0.32519129 </v>
   <v>       0.49714648      -0.24429296      -0.31942752 </v>
   <v>      -0.24429296       0.49714648      -0.31942752 </v>
   <v>       0.25570704       0.49714648      -0.31942752 </v>
   <v>       0.49714648       0.25570704      -0.31942752 </v>
   <v>      -0.00285352       0.49714648      -0.31942752 </v>
   <v>       0.49714648      -0.00285352      -0.31942752 </v>
   <v>       0.49714648       0.49714648      -0.31942752 </v>
   <v>       0.08333333       0.08333333      -0.27956112 </v>
   <v>      -0.41666667       0.08333333      -0.27956112 </v>
   <v>       0.08333333      -0.41666667      -0.27956112 </v>
   <v>      -0.41666667      -0.41666667      -0.27956112 </v>
  </varray>
 </structure>
 <varray name="primitive_index" >
  <v type="int" >        1 </v>
  <v type="int" >       22 </v>
  <v type="int" >       27 </v>
  <v type="int" >        9 </v>
  <v type="int" >        6 </v>
  <v type="int" >       14 </v>
  <v type="int" >       15 </v>
  <v type="int" >        5 </v>
  <v type="int" >       11 </v>
  <v type="int" >       32 </v>
  <v type="int" >       17 </v>
  <v type="int" >       18 </v>
  <v type="int" >       19 </v>
  <v type="int" >       33 </v>
  <v type="int" >       38 </v>
  <v type="int" >       43 </v>
  <v type="int" >       30 </v>
  <v type="int" >       31 </v>
  <v type="int" >       23 </v>
  <v type="int" >       26 </v>
  <v type="int" >        7 </v>
  <v type="int" >       13 </v>
  <v type="int" >       10 </v>
  <v type="int" >       12 </v>
  <v type="int" >       16 </v>
  <v type="int" >        8 </v>
  <v type="int" >       28 </v>
  <v type="int" >       24 </v>
  <v type="int" >       46 </v>
  <v type="int" >       47 </v>
  <v type="int" >       48 </v>
  <v type="int" >        2 </v>
  <v type="int" >        4 </v>
  <v type="int" >        3 </v>
  <v type="int" >       35 </v>
  <v type="int" >       34 </v>
  <v type="int" >       42 </v>
  <v type="int" >       39 </v>
  <v type="int" >       41 </v>
  <v type="int" >       37 </v>
  <v type="int" >       21 </v>
  <v type="int" >       25 </v>
  <v type="int" >       29 </v>
  <v type="int" >       49 </v>
  <v type="int" >       20 </v>
  <v type="int" >       53 </v>
  <v type="int" >       57 </v>
  <v type="int" >       59 </v>
  <v type="int" >       54 </v>
  <v type="int" >       62 </v>
  <v type="int" >       63 </v>
  <v type="int" >       36 </v>
  <v type="int" >       40 </v>
  <v type="int" >       44 </v>
  <v type="int" >       45 </v>
  <v type="int" >       58 </v>
  <v type="int" >       55 </v>
  <v type="int" >       56 </v>
  <v type="int" >       60 </v>
  <v type="int" >       61 </v>
  <v type="int" >       64 </v>
  <v type="int" >       50 </v>
  <v type="int" >       51 </v>
  <v type="int" >       52 </v>
  <v type="int" >       80 </v>
  <v type="int" >       75 </v>
  <v type="int" >       70 </v>
  <v type="int" >       65 </v>
  <v type="int" >       67 </v>
  <v type="int" >       66 </v>
  <v type="int" >       78 </v>
  <v type="int" >       79 </v>
  <v type="int" >       72 </v>
  <v type="int" >       76 </v>
  <v type="int" >       71 </v>
  <v type="int" >       74 </v>
  <v type="int" >       77 </v>
  <v type="int" >       69 </v>
  <v type="int" >       73 </v>
  <v type="int" >       68 </v>
  <v type="int" >       81 </v>
  <v type="int" >       91 </v>
  <v type="int" >       86 </v>
  <v type="int" >       96 </v>
  <v type="int" >       95 </v>
  <v type="int" >       94 </v>
  <v type="int" >       83 </v>
  <v type="int" >       82 </v>
  <v type="int" >       85 </v>
  <v type="int" >       89 </v>
  <v type="int" >       90 </v>
  <v type="int" >       87 </v>
  <v type="int" >       84 </v>
  <v type="int" >       88 </v>
  <v type="int" >       92 </v>
  <v type="int" >       93 </v>
  <v type="int" >      100 </v>
  <v type="int" >      110 </v>
  <v type="int" >      111 </v>
  <v type="int" >      108 </v>
  <v type="int" >      104 </v>
  <v type="int" >      103 </v>
  <v type="int" >      106 </v>
  <v type="int" >      109 </v>
  <v type="int" >      112 </v>
  <v type="int" >      102 </v>
  <v type="int" >      107 </v>
  <v type="int" >      105 </v>
  <v type="int" >      101 </v>
  <v type="int" >       99 </v>
  <v type="int" >       98 </v>
  <v type="int" >       97 </v>
  <v type="int" >      113 </v>
  <v type="int" >      115 </v>
  <v type="int" >      114 </v>
  <v type="int" >      116 </v>
 </varray>
 <kpoints>
  <generation param="Gamma">
   <v type="int" name="divisions">       4        4        1 </v>
   <v name="usershift">      0.00000000       0.00000000       0.00000000 </v>
   <v name="genvec1">      0.25000000      -0.00000000       0.00000000 </v>
   <v name="genvec2">      0.00000000       0.25000000       0.00000000 </v>
   <v name="genvec3">      0.00000000       0.00000000       1.00000000 </v>
   <v name="shift">      0.00000000       0.00000000       0.00000000 </v>
  </generation>
  <varray name="kpointlist" >
   <v>       0.00000000       0.00000000       0.00000000 </v>
   <v>       0.25000000      -0.00000000       0.00000000 </v>
   <v>       0.50000000      -0.00000000       0.00000000 </v>
   <v>       0.00000000       0.25000000       0.00000000 </v>
   <v>       0.25000000       0.25000000       0.00000000 </v>
   <v>       0.50000000       0.25000000       0.00000000 </v>
   <v>      -0.25000000       0.25000000       0.00000000 </v>
   <v>       0.00000000       0.50000000       0.00000000 </v>
   <v>       0.25000000       0.50000000       0.00000000 </v>
   <v>       0.50000000       0.50000000       0.00000000 </v>
  </varray>
  <varray name="weights" >
   <v>       0.06250000 </v>
   <v>       0.12500000 </v>
   <v>       0.06250000 </v>
   <v>       0.12500000 </v>
   <v>       0.12500000 </v>
   <v>       0.12500000 </v>
   <v>       0.12500000 </v>
   <v>       0.06250000 </v>
   <v>       0.12500000 </v>
   <v>       0.06250000 </v>
  </varray>
 </kpoints>
 <parameters>
  <separator name="general" >
   <i type="string" name="SYSTEM">unknown system</i>
   <i type="logical" name="LCOMPAT"> F  </i>
  </separator>
  <separator name="electronic" >
   <i type="string" name="PREC">a</i>
   <i name="ENMAX">    500.00000000</i>
   <i name="ENAUG">    605.39200000</i>
   <i name="EDIFF">      0.00000100</i>
   <i type="int" name="IALGO">    38</i>
   <i type="int" name="IWAVPR">    10</i>
   <i type="int" name="NBANDS">   756</i>
   <i name="NELECT">   1256.00000000</i>
   <i type="int" name="TURBO">     0</i>
   <i type="int" name="IRESTART">     0</i>
   <i type="int" name="NREBOOT">     0</i>
   <i type="int" name="NMIN">     0</i>
   <i name="EREF">      0.00000000</i>
   <separator name="electronic smearing" >
    <i type="int" name="ISMEAR">     0</i>
    <i name="SIGMA">      0.05000000</i>
    <i name="KSPACING">      0.50000000</i>
    <i type="logical" name="KGAMMA"> T  </i>
   </separator>
   <separator name="electronic projectors" >
    <i type="logical" name="LREAL"> F  </i>
    <v name="ROPT">      0.00000000      0.00000000</v>
    <i type="int" name="LMAXPAW">  -100</i>
    <i type="int" name="LMAXMIX">     2</i>
    <i type="logical" name="NLSPLINE"> F  </i>
   </separator>
   <separator name="electronic startup" >
    <i type="int" name="ISTART">     0</i>
    <i type="int" name="ICHARG">     2</i>
    <i type="int" name="INIWAV">     1</i>
   </separator>
   <separator name="electronic spin" >
    <i type="int" name="ISPIN">     1</i>
    <i type="logical" name="LNONCOLLINEAR"> F  </i>
    <v name="MAGMOM">      1.00000000      1.00000000      1.00000000      1.00000000      1.00000000      1.00000000      1.00000000      1.00000000      1.00000000      1.00000000      1.00000000      1.00000000      1.00000000      1.00000000      1.00000000      1.00000000      1.00000000      1.00000000      1.00000000      1.00000000
      1.00000000      1.00000000      1.00000000      1.00000000      1.00000000      1.00000000      1.00000000      1.00000000      1.00000000      1.00000000      1.00000000      1.00000000      1.00000000      1.00000000      1.00000000      1.00000000      1.00000000      1.00000000      1.00000000      1.00000000
      1.00000000      1.00000000      1.00000000      1.00000000      1.00000000      1.00000000      1.00000000      1.00000000      1.00000000      1.00000000      1.00000000      1.00000000      1.00000000      1.00000000      1.00000000      1.00000000      1.00000000      1.00000000      1.00000000      1.00000000
      1.00000000      1.00000000      1.00000000      1.00000000      1.00000000      1.00000000      1.00000000      1.00000000      1.00000000      1.00000000      1.00000000      1.00000000      1.00000000      1.00000000      1.00000000      1.00000000      1.00000000      1.00000000      1.00000000      1.00000000
      1.00000000      1.00000000      1.00000000      1.00000000      1.00000000      1.00000000      1.00000000      1.00000000      1.00000000      1.00000000      1.00000000      1.00000000      1.00000000      1.00000000      1.00000000      1.00000000      1.00000000      1.00000000      1.00000000      1.00000000
      1.00000000      1.00000000      1.00000000      1.00000000      1.00000000      1.00000000      1.00000000      1.00000000      1.00000000      1.00000000      1.00000000      1.00000000      1.00000000      1.00000000      1.00000000      1.00000000</v>
    <i name="NUPDOWN">     -1.00000000</i>
    <i type="logical" name="LSORBIT"> F  </i>
    <v name="SAXIS">      0.00000000      0.00000000      1.00000000</v>
    <i type="logical" name="LSPIRAL"> F  </i>
    <v name="QSPIRAL">      0.00000000      0.00000000      0.00000000</v>
    <i type="logical" name="LZEROZ"> F  </i>
   </separator>
   <separator name="electronic exchange-correlation" >
    <i type="logical" name="LASPH"> F  </i>
    <i type="logical" name="LMETAGGA"> F  </i>
   </separator>
   <separator name="electronic convergence" >
    <i type="int" name="NELM">   300</i>
    <i type="int" name="NELMDL">    -5</i>
    <i type="int" name="NELMIN">     5</i>
    <i name="ENINI">    500.00000000</i>
    <separator name="electronic convergence detail" >
     <i type="logical" name="LDIAG"> T  </i>
     <i type="logical" name="LSUBROT"> F  </i>
     <i name="WEIMIN">      0.00000000</i>
     <i name="EBREAK">      0.00000000</i>
     <i name="DEPER">      0.30000000</i>
     <i type="int" name="NRMM">     4</i>
     <i name="TIME">      0.40000000</i>
    </separator>
   </separator>
   <separator name="electronic mixer" >
    <i name="AMIX">      0.40000000</i>
    <i name="BMIX">      1.00000000</i>
    <i name="AMIN">      0.10000000</i>
    <i name="AMIX_MAG">      1.60000000</i>
    <i name="BMIX_MAG">      1.00000000</i>
    <separator name="electronic mixer details" >
     <i type="int" name="IMIX">     4</i>
     <i type="logical" name="MIXFIRST"> F  </i>
     <i type="int" name="MAXMIX">   -45</i>
     <i name="WC">    100.00000000</i>
     <i type="int" name="INIMIX">     1</i>
     <i type="int" name="MIXPRE">     1</i>
     <i type="int" name="MREMOVE">     5</i>
    </separator>
   </separator>
   <separator name="electronic dipolcorrection" >
    <i type="logical" name="LDIPOL"> F  </i>
    <i type="logical" name="LMONO"> F  </i>
    <i type="int" name="IDIPOL">     0</i>
    <i name="EPSILON">      1.00000000</i>
    <v name="DIPOL">   -100.00000000   -100.00000000   -100.00000000</v>
    <i name="EFIELD">      0.00000000</i>
   </separator>
  </separator>
  <separator name="grids" >
   <i type="int" name="NGX">    80</i>
   <i type="int" name="NGY">    80</i>
   <i type="int" name="NGZ">   210</i>
   <i type="int" name="NGXF">   160</i>
   <i type="int" name="NGYF">   160</i>
   <i type="int" name="NGZF">   420</i>
   <i type="logical" name="ADDGRID"> T  </i>
  </separator>
  <separator name="ionic" >
   <i type="int" name="NSW">     0</i>
   <i type="int" name="IBRION">    -1</i>
   <i type="int" name="MDALGO">     0</i>
   <i type="int" name="ISIF">     2</i>
   <i name="PSTRESS">      0.00000000</i>
   <i name="EDIFFG">      0.00001000</i>
   <i type="int" name="NFREE">     0</i>
   <i name="POTIM">      0.50000000</i>
   <i name="SMASS">     -3.00000000</i>
   <i name="SCALEE">      1.00000000</i>
  </separator>
  <separator name="ionic md" >
   <i name="TEBEG">      0.00010000</i>
   <i name="TEEND">      0.00010000</i>
   <i type="int" name="NBLOCK">     1</i>
   <i type="int" name="KBLOCK">     1</i>
   <i type="int" name="NPACO">   256</i>
   <i name="APACO">     16.00000000</i>
  </separator>
  <separator name="symmetry" >
   <i type="int" name="ISYM">     2</i>
   <i name="SYMPREC">      0.00001000</i>
  </separator>
  <separator name="dos" >
   <i type="int" name="LORBIT">     0</i>
   <v name="RWIGS">     -1.00000000     -1.00000000</v>
   <i type="int" name="NEDOS">   301</i>
   <i name="EMIN">     10.00000000</i>
   <i name="EMAX">    -10.00000000</i>
   <i name="EFERMI">      0.00000000</i>
  </separator>
  <separator name="writing" >
   <i type="int" name="NWRITE">     2</i>
   <i type="logical" name="LWAVE"> F  </i>
   <i type="logical" name="LDOWNSAMPLE"> F  </i>
   <i type="logical" name="LCHARG"> F  </i>
   <i type="logical" name="LPARD"> F  </i>
   <i type="logical" name="LVTOT"> F  </i>
   <i type="logical" name="LVHAR"> F  </i>
   <i type="logical" name="LELF"> F  </i>
   <i type="logical" name="LOPTICS"> F  </i>
   <v name="STM">      0.00000000      0.00000000      0.00000000      0.00000000      0.00000000      0.00000000      0.00000000</v>
  </separator>
  <separator name="performance" >
   <i type="int" name="NPAR">     4</i>
   <i type="int" name="NSIM">     4</i>
   <i type="int" name="NBLK">    -1</i>
   <i type="logical" name="LPLANE"> T  </i>
   <i type="logical" name="LSCALAPACK"> F  </i>
   <i type="logical" name="LSCAAWARE"> F  </i>
   <i type="logical" name="LSCALU"> F  </i>
   <i type="logical" name="LASYNC"> F  </i>
   <i type="logical" name="LORBITALREAL"> F  </i>
  </separator>
  <separator name="miscellaneous" >
   <i type="int" name="IDIOT">     3</i>
   <i type="int" name="ISPECIAL">     0</i>
   <i type="logical" name="LMUSIC"> F  </i>
   <v name="POMASS">     63.54600000     16.00000000</v>
   <v name="DARWINR">      0.00000000      0.00000000</v>
   <v name="DARWINV">      1.00000000      1.00000000</v>
   <i type="logical" name="LCORR"> T  </i>
  </separator>
  <i type="logical" name="GGA_COMPAT"> T  </i>
  <i type="logical" name="LBERRY"> F  </i>
  <i type="int" name="ICORELEVEL">     0</i>
  <i type="logical" name="LDAU"> F  </i>
  <i type="int" name="I_CONSTRAINED_M">     0</i>
  <separator name="electronic exchange-correlation" >
   <i type="string" name="GGA">--</i>
   <i type="int" name="VOSKOWN">     0</i>
   <i type="logical" name="LHFCALC"> F  </i>
   <i type="string" name="PRECFOCK"></i>
   <i type="logical" name="LSYMGRAD"> F  </i>
   <i type="logical" name="LHFONE"> F  </i>
   <i type="logical" name="LRHFCALC"> F  </i>
   <i type="logical" name="LTHOMAS"> F  </i>
   <i type="logical" name="LMODELHF"> F  </i>
   <i name="ENCUT4O">     -1.00000000</i>
   <i type="int" name="EXXOEP">     0</i>
   <i type="int" name="FOURORBIT">     0</i>
   <i name="AEXX">      0.00000000</i>
   <i name="HFALPHA">      0.00000000</i>
   <i name="MCALPHA">      0.00000000</i>
   <i name="ALDAX">      1.00000000</i>
   <i name="AGGAX">      1.00000000</i>
   <i name="ALDAC">      1.00000000</i>
   <i name="AGGAC">      1.00000000</i>
   <i type="int" name="NKREDX">     1</i>
   <i type="int" name="NKREDY">     1</i>
   <i type="int" name="NKREDZ">     1</i>
   <i type="logical" name="SHIFTRED"> F  </i>
   <i type="logical" name="ODDONLY"> F  </i>
   <i type="logical" name="EVENONLY"> F  </i>
   <i type="int" name="LMAXFOCK">     0</i>
   <i type="int" name="NMAXFOCKAE">     0</i>
   <i type="logical" name="LFOCKAEDFT"> F  </i>
   <i name="HFSCREEN">      0.00000000</i>
   <i name="HFSCREENC">      0.00000000</i>
   <i type="int" name="NBANDSGWLOW">     0</i>
  </separator>
  <separator name="vdW DFT" >
   <i type="logical" name="LUSE_VDW"> F  </i>
   <i name="Zab_VDW">     -0.84910000</i>
   <i name="PARAM1">      0.12340000</i>
   <i name="PARAM2">      1.00000000</i>
   <i name="PARAM3">      0.00000000</i>
  </separator>
  <separator name="model GW" >
   <i type="int" name="MODEL_GW">     0</i>
   <i name="MODEL_EPS0">     13.16858037</i>
   <i name="MODEL_ALPHA">      1.00000000</i>
  </separator>
  <separator name="linear response parameters" >
   <i type="logical" name="LEPSILON"> F  </i>
   <i type="logical" name="LRPA"> F  </i>
   <i type="logical" name="LNABLA"> F  </i>
   <i type="logical" name="LVEL"> F  </i>
   <i type="int" name="KINTER">     0</i>
   <i name="CSHIFT">      0.10000000</i>
   <i name="OMEGAMAX">     -1.00000000</i>
   <i name="DEG_THRESHOLD">      0.00200000</i>
   <i name="RTIME">     -0.10000000</i>
   <i name="WPLASMAI">      0.00000000</i>
   <v name="DFIELD">      0.00000000      0.00000000      0.00000000</v>
   <v name="WPLASMA">      0.00000000      0.00000000      0.00000000      0.00000000      0.00000000      0.00000000      0.00000000      0.00000000      0.00000000</v>
  </separator>
  <separator name="orbital magnetization" >
   <i type="logical" name="NUCIND"> F  </i>
   <v name="MAGPOS">      0.00000000      0.00000000      0.00000000</v>
   <i type="logical" name="LNICSALL"> T  </i>
   <i type="logical" name="ORBITALMAG"> F  </i>
   <i type="logical" name="LMAGBLOCH"> F  </i>
   <i type="logical" name="LCHIMAG"> F  </i>
   <i type="logical" name="LGAUGE"> T  </i>
   <i type="int" name="MAGATOM">     0</i>
   <v name="MAGDIPOL">      0.00000000      0.00000000      0.00000000</v>
   <v name="AVECCONST">      0.00000000      0.00000000      0.00000000</v>
  </separator>
  <separator name="response functions" >
   <i type="logical" name="LADDER"> F  </i>
   <i type="logical" name="LRPAFORCE"> F  </i>
   <i type="logical" name="LFXC"> F  </i>
   <i type="logical" name="LHARTREE"> T  </i>
   <i type="int" name="IBSE">     0</i>
   <v type="int" name="KPOINT">    -1     0     0     0</v>
   <i type="logical" name="LTCTE"> F  </i>
   <i type="logical" name="LTETE"> F  </i>
   <i type="logical" name="LTRIPLET"> F  </i>
   <i type="logical" name="LFXCEPS"> F  </i>
   <i type="logical" name="LFXHEG"> F  </i>
   <i type="int" name="NATURALO">     2</i>
   <i type="logical" name="L2ORDER"> F  </i>
   <i type="logical" name="LMP2LT"> F  </i>
   <i type="logical" name="LUSEW"> F  </i>
   <i name="ENCUTGW">     -2.00000000</i>
   <i name="ENCUTGWSOFT">     -2.00000000</i>
   <i name="ENCUTLF">     -1.00000000</i>
   <i type="int" name="LMAXMP2">    -1</i>
   <i name="SCISSOR">      0.00000000</i>
   <i type="int" name="NOMEGA">     0</i>
   <i type="int" name="NOMEGAR">     0</i>
   <i type="int" name="NBANDSGW">    -1</i>
   <i type="int" name="NBANDSO">    -1</i>
   <i type="int" name="NBANDSV">    -1</i>
   <i type="int" name="NELM">   300</i>
   <i type="int" name="NELMHF">     1</i>
   <i type="int" name="DIM">     3</i>
   <i type="int" name="ANTIRES">     0</i>
   <i name="OMEGAMAX">    -30.00000000</i>
   <i name="OMEGAMIN">    -30.00000000</i>
   <i name="OMEGATL">   -200.00000000</i>
   <i type="int" name="OMEGAGRID">   140</i>
   <i name="CSHIFT">     -0.10000000</i>
   <i type="logical" name="SELFENERGY"> F  </i>
   <i type="logical" name="LSPECTRAL"> F  </i>
   <i type="logical" name="LSPECTRALGW"> F  </i>
   <i type="logical" name="LSINGLES"> F  </i>
   <i type="logical" name="LFERMIGW"> F  </i>
   <i type="logical" name="ODDONLYGW"> F  </i>
   <i type="logical" name="EVENONLYGW"> F  </i>
   <i type="int" name="NKREDLFX">     1</i>
   <i type="int" name="NKREDLFY">     1</i>
   <i type="int" name="NKREDLFZ">     1</i>
   <i type="int" name="MAXMEM">  2800</i>
   <i type="int" name="TELESCOPE">     0</i>
   <i type="int" name="TAUPAR">     1</i>
   <i type="int" name="OMEGAPAR">    -1</i>
   <i name="LAMBDA">      1.00000000</i>
  </separator>
  <separator name="External order field" >
   <i name="OFIELD_KAPPA">      0.00000000</i>
   <v name="OFIELD_K">      0.00000000      0.00000000      0.00000000</v>
   <i name="OFIELD_Q6_NEAR">      0.00000000</i>
   <i name="OFIELD_Q6_FAR">      0.00000000</i>
   <i name="OFIELD_A">      0.00000000</i>
  </separator>
 </parameters>
 <atominfo>
  <atoms>     116 </atoms>
  <types>       2 </types>
  <array name="atoms" >
   <dimension dim="1">ion</dimension>
   <field type="string">element</field>
   <field type="int">atomtype</field>
   <set>
    <rc><c>Cu</c><c>   1</c></rc>
    <rc><c>Cu</c><c>   1</c></rc>
    <rc><c>Cu</c><c>   1</c></rc>
    <rc><c>Cu</c><c>   1</c></rc>
    <rc><c>Cu</c><c>   1</c></rc>
    <rc><c>Cu</c><c>   1</c></rc>
    <rc><c>Cu</c><c>   1</c></rc>
    <rc><c>Cu</c><c>   1</c></rc>
    <rc><c>Cu</c><c>   1</c></rc>
    <rc><c>Cu</c><c>   1</c></rc>
    <rc><c>Cu</c><c>   1</c></rc>
    <rc><c>Cu</c><c>   1</c></rc>
    <rc><c>Cu</c><c>   1</c></rc>
    <rc><c>Cu</c><c>   1</c></rc>
    <rc><c>Cu</c><c>   1</c></rc>
    <rc><c>Cu</c><c>   1</c></rc>
    <rc><c>Cu</c><c>   1</c></rc>
    <rc><c>Cu</c><c>   1</c></rc>
    <rc><c>Cu</c><c>   1</c></rc>
    <rc><c>Cu</c><c>   1</c></rc>
    <rc><c>Cu</c><c>   1</c></rc>
    <rc><c>Cu</c><c>   1</c></rc>
    <rc><c>Cu</c><c>   1</c></rc>
    <rc><c>Cu</c><c>   1</c></rc>
    <rc><c>Cu</c><c>   1</c></rc>
    <rc><c>Cu</c><c>   1</c></rc>
    <rc><c>Cu</c><c>   1</c></rc>
    <rc><c>Cu</c><c>   1</c></rc>
    <rc><c>Cu</c><c>   1</c></rc>
    <rc><c>Cu</c><c>   1</c></rc>
    <rc><c>Cu</c><c>   1</c></rc>
    <rc><c>Cu</c><c>   1</c></rc>
    <rc><c>Cu</c><c>   1</c></rc>
    <rc><c>Cu</c><c>   1</c></rc>
    <rc><c>Cu</c><c>   1</c></rc>
    <rc><c>Cu</c><c>   1</c></rc>
    <rc><c>Cu</c><c>   1</c></rc>
    <rc><c>Cu</c><c>   1</c></rc>
    <rc><c>Cu</c><c>   1</c></rc>
    <rc><c>Cu</c><c>   1</c></rc>
    <rc><c>Cu</c><c>   1</c></rc>
    <rc><c>Cu</c><c>   1</c></rc>
    <rc><c>Cu</c><c>   1</c></rc>
    <rc><c>Cu</c><c>   1</c></rc>
    <rc><c>Cu</c><c>   1</c></rc>
    <rc><c>Cu</c><c>   1</c></rc>
    <rc><c>Cu</c><c>   1</c></rc>
    <rc><c>Cu</c><c>   1</c></rc>
    <rc><c>Cu</c><c>   1</c></rc>
    <rc><c>Cu</c><c>   1</c></rc>
    <rc><c>Cu</c><c>   1</c></rc>
    <rc><c>Cu</c><c>   1</c></rc>
    <rc><c>Cu</c><c>   1</c></rc>
    <rc><c>Cu</c><c>   1</c></rc>
    <rc><c>Cu</c><c>   1</c></rc>
    <rc><c>Cu</c><c>   1</c></rc>
    <rc><c>Cu</c><c>   1</c></rc>
    <rc><c>Cu</c><c>   1</c></rc>
    <rc><c>Cu</c><c>   1</c></rc>
    <rc><c>Cu</c><c>   1</c></rc>
    <rc><c>Cu</c><c>   1</c></rc>
    <rc><c>Cu</c><c>   1</c></rc>
    <rc><c>Cu</c><c>   1</c></rc>
    <rc><c>Cu</c><c>   1</c></rc>
    <rc><c>Cu</c><c>   1</c></rc>
    <rc><c>Cu</c><c>   1</c></rc>
    <rc><c>Cu</c><c>   1</c></rc>
    <rc><c>Cu</c><c>   1</c></rc>
    <rc><c>Cu</c><c>   1</c></rc>
    <rc><c>Cu</c><c>   1</c></rc>
    <rc><c>Cu</c><c>   1</c></rc>
    <rc><c>Cu</c><c>   1</c></rc>
    <rc><c>Cu</c><c>   1</c></rc>
    <rc><c>Cu</c><c>   1</c></rc>
    <rc><c>Cu</c><c>   1</c></rc>
    <rc><c>Cu</c><c>   1</c></rc>
    <rc><c>Cu</c><c>   1</c></rc>
    <rc><c>Cu</c><c>   1</c></rc>
    <rc><c>Cu</c><c>   1</c></rc>
    <rc><c>Cu</c><c>   1</c></rc>
    <rc><c>Cu</c><c>   1</c></rc>
    <rc><c>Cu</c><c>   1</c></rc>
    <rc><c>Cu</c><c>   1</c></rc>
    <rc><c>Cu</c><c>   1</c></rc>
    <rc><c>Cu</c><c>   1</c></rc>
    <rc><c>Cu</c><c>   1</c></rc>
    <rc><c>Cu</c><c>   1</c></rc>
    <rc><c>Cu</c><c>   1</c></rc>
    <rc><c>Cu</c><c>   1</c></rc>
    <rc><c>Cu</c><c>   1</c></rc>
    <rc><c>Cu</c><c>   1</c></rc>
    <rc><c>Cu</c><c>   1</c></rc>
    <rc><c>Cu</c><c>   1</c></rc>
    <rc><c>Cu</c><c>   1</c></rc>
    <rc><c>Cu</c><c>   1</c></rc>
    <rc><c>Cu</c><c>   1</c></rc>
    <rc><c>Cu</c><c>   1</c></rc>
    <rc><c>Cu</c><c>   1</c></rc>
    <rc><c>Cu</c><c>   1</c></rc>
    <rc><c>Cu</c><c>   1</c></rc>
    <rc><c>Cu</c><c>   1</c></rc>
    <rc><c>Cu</c><c>   1</c></rc>
    <rc><c>Cu</c><c>   1</c></rc>
    <rc><c>Cu</c><c>   1</c></rc>
    <rc><c>Cu</c><c>   1</c></rc>
    <rc><c>Cu</c><c>   1</c></rc>
    <rc><c>Cu</c><c>   1</c></rc>
    <rc><c>Cu</c><c>   1</c></rc>
    <rc><c>Cu</c><c>   1</c></rc>
    <rc><c>Cu</c><c>   1</c></rc>
    <rc><c>Cu</c><c>   1</c></rc>
    <rc><c>Cu</c><c>   1</c></rc>
    <rc><c>O </c><c>   2</c></rc>
    <rc><c>O </c><c>   2</c></rc>
    <rc><c>O </c><c>   2</c></rc>
    <rc><c>O </c><c>   2</c></rc>
   </set>
  </array>
  <array name="atomtypes" >
   <dimension dim="1">type</dimension>
   <field type="int">atomspertype</field>
   <field type="string">element</field>
   <field>mass</field>
   <field>valence</field>
   <field type="string">pseudopotential</field>
   <set>
    <rc><c> 112</c><c>Cu</c><c>     63.54600000</c><c>     11.00000000</c><c> PAW_PBE Cu 05Jan2001                   </c></rc>
    <rc><c>   4</c><c>O </c><c>     16.00000000</c><c>      6.00000000</c><c> PAW_PBE O 08Apr2002                    </c></rc>
   </set>
  </array>
 </atominfo>
 <structure name="initialpos" >
  <crystal>
   <varray name="basis" >
    <v>      10.28518105       0.00000000       0.00000000 </v>
    <v>       5.14259052       8.90722807       0.00000000 </v>
    <v>       0.00000000       0.00000000      27.79016876 </v>
   </varray>
   <i name="volume">   2545.92553775 </i>
   <varray name="rec_basis" >
    <v>       0.09722726      -0.05613419       0.00000000 </v>
    <v>       0.00000000       0.11226837       0.00000000 </v>
    <v>       0.00000000       0.00000000       0.03598395 </v>
   </varray>
  </crystal>
  <varray name="positions" >
   <v>       0.00000000       0.00000000       0.22663990 </v>
   <v>       0.00000000       0.50000000       0.22663990 </v>
   <v>       0.50000000       0.00000000       0.22663990 </v>
   <v>       0.50000000       0.50000000       0.22663990 </v>
   <v>       0.00000000       0.25000000       0.22663990 </v>
   <v>       0.00000000       0.75000000       0.22663990 </v>
   <v>       0.50000000       0.25000000       0.22663990 </v>
   <v>       0.50000000       0.75000000       0.22663990 </v>
   <v>       0.25000000       0.00000000       0.22663990 </v>
   <v>       0.25000000       0.50000000       0.22663990 </v>
   <v>       0.75000000       0.00000000       0.22663990 </v>
   <v>       0.75000000       0.50000000       0.22663990 </v>
   <v>       0.25000000       0.25000000       0.22663990 </v>
   <v>       0.25000000       0.75000000       0.22663990 </v>
   <v>       0.75000000       0.25000000       0.22663990 </v>
   <v>       0.75000000       0.75000000       0.22663990 </v>
   <v>       0.16666666       0.16666666       0.30218653 </v>
   <v>       0.16666666       0.66666666       0.30218653 </v>
   <v>       0.66666666       0.16666666       0.30218653 </v>
   <v>       0.66666666       0.66666666       0.30218653 </v>
   <v>       0.16666666       0.41666666       0.30218653 </v>
   <v>       0.16666666       0.91666666       0.30218653 </v>
   <v>       0.66666666       0.41666666       0.30218653 </v>
   <v>       0.66666666       0.91666666       0.30218653 </v>
   <v>       0.41666666       0.16666666       0.30218653 </v>
   <v>       0.41666666       0.66666666       0.30218653 </v>
   <v>       0.91666666       0.16666666       0.30218653 </v>
   <v>       0.91666666       0.66666666       0.30218653 </v>
   <v>       0.41666666       0.41666666       0.30218653 </v>
   <v>       0.41666666       0.91666666       0.30218653 </v>
   <v>       0.91666666       0.41666666       0.30218653 </v>
   <v>       0.91666666       0.91666666       0.30218653 </v>
   <v>       0.08333333       0.08333333       0.37716320 </v>
   <v>       0.08333333       0.58333333       0.37716320 </v>
   <v>       0.58333333       0.08333333       0.37716320 </v>
   <v>       0.58333333       0.58333333       0.37716320 </v>
   <v>       0.08351614       0.33324190       0.37729758 </v>
   <v>       0.08351614       0.83324190       0.37729758 </v>
   <v>       0.58351614       0.33324190       0.37729758 </v>
   <v>       0.58351614       0.83324190       0.37729758 </v>
   <v>       0.33324190       0.08351614       0.37729758 </v>
   <v>       0.33324190       0.58351614       0.37729758 </v>
   <v>       0.83324190       0.08351614       0.37729758 </v>
   <v>       0.83324190       0.58351614       0.37729758 </v>
   <v>       0.33324190       0.33324190       0.37729758 </v>
   <v>       0.33324190       0.83324190       0.37729758 </v>
   <v>       0.83324190       0.33324190       0.37729758 </v>
   <v>       0.83324190       0.83324190       0.37729758 </v>
   <v>       0.00012997       0.00012997       0.45242342 </v>
   <v>       0.00012997       0.50012997       0.45242342 </v>
   <v>       0.50012997       0.00012997       0.45242342 </v>
   <v>       0.50012997       0.50012997       0.45242342 </v>
   <v>       0.00012997       0.24974005       0.45242342 </v>
   <v>       0.00012997       0.74974005       0.45242342 </v>
   <v>       0.50012997       0.24974005       0.45242342 </v>
   <v>       0.50012997       0.74974005       0.45242342 </v>
   <v>       0.24974005       0.00012997       0.45242342 </v>
   <v>       0.24974005       0.50012997       0.45242342 </v>
   <v>       0.74974005       0.00012997       0.45242342 </v>
   <v>       0.74974005       0.50012997       0.45242342 </v>
   <v>       0.25000000       0.25000000       0.45288750 </v>
   <v>       0.25000000       0.75000000       0.45288750 </v>
   <v>       0.75000000       0.25000000       0.45288750 </v>
   <v>       0.75000000       0.75000000       0.45288750 </v>
   <v>       0.16523098       0.16660598       0.52763018 </v>
   <v>       0.16660598       0.66660598       0.52813907 </v>
   <v>       0.66660598       0.16660598       0.52813907 </v>
   <v>       0.66660598       0.66660598       0.52813907 </v>
   <v>       0.16660598       0.41678801       0.52813907 </v>
   <v>       0.16660598       0.91678801       0.52813907 </v>
   <v>       0.66660598       0.41678801       0.52813907 </v>
   <v>       0.66660598       0.91678801       0.52813907 </v>
   <v>       0.41678801       0.16660598       0.52813907 </v>
   <v>       0.41678801       0.66660598       0.52813907 </v>
   <v>       0.91678801       0.16660598       0.52813907 </v>
   <v>       0.91678801       0.66660598       0.52813907 </v>
   <v>       0.41666666       0.41666666       0.52741939 </v>
   <v>       0.41666666       0.91666666       0.52741939 </v>
   <v>       0.91666666       0.41666666       0.52741939 </v>
   <v>       0.91666666       0.91666666       0.52741939 </v>
   <v>       0.08333333       0.08333333       0.60253339 </v>
   <v>       0.08333333       0.58333333       0.60253339 </v>
   <v>       0.58333333       0.08333333       0.60253339 </v>
   <v>       0.58333333       0.58333333       0.60253339 </v>
   <v>       0.08130935       0.33434529       0.60320464 </v>
   <v>       0.08130935       0.83434529       0.60320464 </v>
   <v>       0.58130935       0.33434529       0.60320464 </v>
   <v>       0.58130935       0.83434529       0.60320464 </v>
   <v>       0.33434529       0.08130935       0.60320464 </v>
   <v>       0.33434529       0.58130935       0.60320464 </v>
   <v>       0.83434529       0.08130935       0.60320464 </v>
   <v>       0.83434529       0.58130935       0.60320464 </v>
   <v>       0.33434529       0.33434529       0.60320464 </v>
   <v>       0.33434529       0.83434529       0.60320464 </v>
   <v>       0.83434529       0.33434529       0.60320464 </v>
   <v>       0.83434529       0.83434529       0.60320464 </v>
   <v>       0.49714648       0.49714648       0.68057248 </v>
   <v>       0.49714648       0.99714648       0.68057248 </v>
   <v>       0.99714648       0.49714648       0.68057248 </v>
   <v>       0.99714648       0.99714648       0.68057248 </v>
   <v>       0.49714648       0.25570704       0.68057248 </v>
   <v>       0.49714648       0.75570704       0.68057248 </v>
   <v>       0.99714648       0.25570704       0.68057248 </v>
   <v>       0.99714648       0.75570704       0.68057248 </v>
   <v>       0.25570704       0.49714648       0.68057248 </v>
   <v>       0.25570704       0.99714648       0.68057248 </v>
   <v>       0.75570704       0.49714648       0.68057248 </v>
   <v>       0.75570704       0.99714648       0.68057248 </v>
   <v>       0.25000000       0.25000000       0.67480871 </v>
   <v>       0.25000000       0.75000000       0.67480871 </v>
   <v>       0.75000000       0.25000000       0.67480871 </v>
   <v>       0.75000000       0.75000000       0.67480871 </v>
   <v>       0.08333333       0.08333333       0.72043888 </v>
   <v>       0.08333333       0.58333333       0.72043888 </v>
   <v>       0.58333333       0.08333333       0.72043888 </v>
   <v>       0.58333333       0.58333333       0.72043888 </v>
  </varray>
 </structure>
 <calculation>
  <scstep>
   <time name="dav">  160.34  161.21</time>
   <time name="total">  161.04  161.93</time>
   <energy>
    <i name="alphaZ">   6463.29446255 </i>
    <i name="ewald"> 664607.03405049 </i>
    <i name="hartreedc">-815361.92431801 </i>
    <i name="XCdc">   5009.43441801 </i>
    <i name="pawpsdc"> 122173.85035501 </i>
    <i name="pawaedc">-138312.01710912 </i>
    <i name="eentropy">     -0.02664180 </i>
    <i name="bandstr">   8852.69287719 </i>
    <i name="atom"> 157518.83071590 </i>
    <i name="e_fr_energy">  10951.16881022 </i>
    <i name="e_wo_entrp">  10951.19545202 </i>
    <i name="e_0_energy">  10951.18213112 </i>
   </energy>
  </scstep>
  <scstep>
   <time name="dav">  159.35  159.60</time>
   <time name="total">  159.38  159.62</time>
   <energy>
    <i name="e_fr_energy">   1074.11668831 </i>
    <i name="e_wo_entrp">   1074.16178225 </i>
    <i name="e_0_energy">   1074.13923528 </i>
   </energy>
  </scstep>
  <scstep>
   <time name="dav">  164.66  164.92</time>
   <time name="total">  164.69  164.94</time>
   <energy>
    <i name="e_fr_energy">   -373.62431936 </i>
    <i name="e_wo_entrp">   -373.55905309 </i>
    <i name="e_0_energy">   -373.59168622 </i>
   </energy>
  </scstep>
  <scstep>
   <time name="dav">  168.43  168.74</time>
   <time name="total">  168.45  168.77</time>
   <energy>
    <i name="e_fr_energy">   -524.82273958 </i>
    <i name="e_wo_entrp">   -524.75939391 </i>
    <i name="e_0_energy">   -524.79106674 </i>
   </energy>
  </scstep>
  <scstep>
   <time name="dav">  155.71  155.92</time>
   <time name="total">  160.73  160.95</time>
   <energy>
    <i name="e_fr_energy">   -530.86792308 </i>
    <i name="e_wo_entrp">   -530.80465776 </i>
    <i name="e_0_energy">   -530.83629042 </i>
   </energy>
  </scstep>
  <scstep>
   <time name="dav">  164.42  164.62</time>
   <time name="total">  169.90  170.12</time>
   <energy>
    <i name="e_fr_energy">   -478.08185864 </i>
    <i name="e_wo_entrp">   -478.02551326 </i>
    <i name="e_0_energy">   -478.05368595 </i>
   </energy>
  </scstep>
  <scstep>
   <time name="dav">  176.42  176.63</time>
   <time name="total">  181.85  182.09</time>
   <energy>
    <i name="e_fr_energy">   -511.27220720 </i>
    <i name="e_wo_entrp">   -511.15060378 </i>
    <i name="e_0_energy">   -511.21140549 </i>
   </energy>
  </scstep>
  <scstep>
   <time name="dav">  193.60  193.82</time>
   <time name="total">  199.04  199.30</time>
   <energy>
    <i name="e_fr_energy">   -444.86627874 </i>
    <i name="e_wo_entrp">   -444.78234178 </i>
    <i name="e_0_energy">   -444.82431026 </i>
   </energy>
  </scstep>
  <scstep>
   <time name="dav">  209.25  209.89</time>
   <time name="total">  214.69  215.37</time>
   <energy>
    <i name="e_fr_energy">   -428.52125782 </i>
    <i name="e_wo_entrp">   -428.48212162 </i>
    <i name="e_0_energy">   -428.50168972 </i>
   </energy>
  </scstep>
  <scstep>
   <time name="dav">  175.28  175.48</time>
   <time name="total">  182.47  182.72</time>
   <energy>
    <i name="e_fr_energy">   -429.30314096 </i>
    <i name="e_wo_entrp">   -429.24978726 </i>
    <i name="e_0_energy">   -429.27646411 </i>
   </energy>
  </scstep>
  <scstep>
   <time name="dav">  213.54  214.04</time>
   <time name="total">  219.01  219.54</time>
   <energy>
    <i name="e_fr_energy">   -427.93367012 </i>
    <i name="e_wo_entrp">   -427.86715060 </i>
    <i name="e_0_energy">   -427.90041036 </i>
   </energy>
  </scstep>
  <scstep>
   <time name="dav">  187.33  187.59</time>
   <time name="total">  192.76  193.06</time>
   <energy>
    <i name="e_fr_energy">   -427.70096344 </i>
    <i name="e_wo_entrp">   -427.64604961 </i>
    <i name="e_0_energy">   -427.67350653 </i>
   </energy>
  </scstep>
  <scstep>
   <time name="dav">  167.65  167.93</time>
   <time name="total">  173.09  173.42</time>
   <energy>
    <i name="e_fr_energy">   -427.64661762 </i>
    <i name="e_wo_entrp">   -427.59193143 </i>
    <i name="e_0_energy">   -427.61927452 </i>
   </energy>
  </scstep>
  <scstep>
   <time name="dav">  169.47  169.77</time>
   <time name="total">  178.04  178.37</time>
   <energy>
    <i name="e_fr_energy">   -427.54146077 </i>
    <i name="e_wo_entrp">   -427.49224491 </i>
    <i name="e_0_energy">   -427.51685284 </i>
   </energy>
  </scstep>
  <scstep>
   <time name="dav">  177.73  178.09</time>
   <time name="total">  183.10  183.53</time>
   <energy>
    <i name="e_fr_energy">   -427.61154546 </i>
    <i name="e_wo_entrp">   -427.56309810 </i>
    <i name="e_0_energy">   -427.58732178 </i>
   </energy>
  </scstep>
  <scstep>
   <time name="dav">  164.76  164.94</time>
   <time name="total">  170.16  171.03</time>
   <energy>
    <i name="e_fr_energy">   -427.51264454 </i>
    <i name="e_wo_entrp">   -427.46305113 </i>
    <i name="e_0_energy">   -427.48784783 </i>
   </energy>
  </scstep>
  <scstep>
   <time name="dav">  172.29  172.49</time>
   <time name="total">  177.74  177.95</time>
   <energy>
    <i name="e_fr_energy">   -427.47873655 </i>
    <i name="e_wo_entrp">   -427.42755327 </i>
    <i name="e_0_energy">   -427.45314491 </i>
   </energy>
  </scstep>
  <scstep>
   <time name="dav">  192.18  192.41</time>
   <time name="total">  197.83  198.12</time>
   <energy>
    <i name="e_fr_energy">   -427.46509475 </i>
    <i name="e_wo_entrp">   -427.41258670 </i>
    <i name="e_0_energy">   -427.43884072 </i>
   </energy>
  </scstep>
  <scstep>
   <time name="dav">  175.03  175.25</time>
   <time name="total">  180.42  180.65</time>
   <energy>
    <i name="e_fr_energy">   -427.46501862 </i>
    <i name="e_wo_entrp">   -427.41195778 </i>
    <i name="e_0_energy">   -427.43848820 </i>
   </energy>
  </scstep>
  <scstep>
   <time name="dav">  157.33  157.51</time>
   <time name="total">  163.53  163.72</time>
   <energy>
    <i name="e_fr_energy">   -427.46549429 </i>
    <i name="e_wo_entrp">   -427.41224915 </i>
    <i name="e_0_energy">   -427.43887172 </i>
   </energy>
  </scstep>
  <scstep>
   <time name="dav">  156.95  157.13</time>
   <time name="total">  162.40  162.59</time>
   <energy>
    <i name="e_fr_energy">   -427.46592676 </i>
    <i name="e_wo_entrp">   -427.41238427 </i>
    <i name="e_0_energy">   -427.43915552 </i>
   </energy>
  </scstep>
  <scstep>
   <time name="dav">  163.05  163.23</time>
   <time name="total">  168.49  168.68</time>
   <energy>
    <i name="e_fr_energy">   -427.46596057 </i>
    <i name="e_wo_entrp">   -427.41266478 </i>
    <i name="e_0_energy">   -427.43931268 </i>
   </energy>
  </scstep>
  <scstep>
   <time name="dav">  156.14  156.32</time>
   <time name="total">  162.83  163.02</time>
   <energy>
    <i name="e_fr_energy">   -427.46597927 </i>
    <i name="e_wo_entrp">   -427.41271885 </i>
    <i name="e_0_energy">   -427.43934906 </i>
   </energy>
  </scstep>
  <scstep>
   <time name="dav">  157.46  157.64</time>
   <time name="total">  164.17  164.36</time>
   <energy>
    <i name="e_fr_energy">   -427.46611162 </i>
    <i name="e_wo_entrp">   -427.41284368 </i>
    <i name="e_0_energy">   -427.43947765 </i>
   </energy>
  </scstep>
  <scstep>
   <time name="dav">  172.84  173.04</time>
   <time name="total">  178.43  178.65</time>
   <energy>
    <i name="e_fr_energy">   -427.46627195 </i>
    <i name="e_wo_entrp">   -427.41304443 </i>
    <i name="e_0_energy">   -427.43965819 </i>
   </energy>
  </scstep>
  <scstep>
   <time name="dav">  175.43  175.72</time>
   <time name="total">  180.91  181.20</time>
   <energy>
    <i name="e_fr_energy">   -427.46651169 </i>
    <i name="e_wo_entrp">   -427.41327993 </i>
    <i name="e_0_energy">   -427.43989581 </i>
   </energy>
  </scstep>
  <scstep>
   <time name="dav">  162.39  162.56</time>
   <time name="total">  167.81  167.99</time>
   <energy>
    <i name="e_fr_energy">   -427.46674703 </i>
    <i name="e_wo_entrp">   -427.41352136 </i>
    <i name="e_0_energy">   -427.44013419 </i>
   </energy>
  </scstep>
  <scstep>
   <time name="dav">  157.42  157.59</time>
   <time name="total">  162.86  163.03</time>
   <energy>
    <i name="e_fr_energy">   -427.46694521 </i>
    <i name="e_wo_entrp">   -427.41373400 </i>
    <i name="e_0_energy">   -427.44033960 </i>
   </energy>
  </scstep>
  <scstep>
   <time name="dav">  154.68  154.87</time>
   <time name="total">  160.83  161.03</time>
   <energy>
    <i name="e_fr_energy">   -427.46707798 </i>
    <i name="e_wo_entrp">   -427.41387658 </i>
    <i name="e_0_energy">   -427.44047728 </i>
   </energy>
  </scstep>
  <scstep>
   <time name="dav">  153.14  153.35</time>
   <time name="total">  160.38  160.61</time>
   <energy>
    <i name="e_fr_energy">   -427.46719820 </i>
    <i name="e_wo_entrp">   -427.41399807 </i>
    <i name="e_0_energy">   -427.44059814 </i>
   </energy>
  </scstep>
  <scstep>
   <time name="dav">  147.40  147.64</time>
   <time name="total">  152.96  153.20</time>
   <energy>
    <i name="e_fr_energy">   -427.46728486 </i>
    <i name="e_wo_entrp">   -427.41407563 </i>
    <i name="e_0_energy">   -427.44068025 </i>
   </energy>
  </scstep>
  <scstep>
   <time name="dav">  152.45  152.66</time>
   <time name="total">  157.87  158.09</time>
   <energy>
    <i name="e_fr_energy">   -427.46734739 </i>
    <i name="e_wo_entrp">   -427.41412383 </i>
    <i name="e_0_energy">   -427.44073561 </i>
   </energy>
  </scstep>
  <scstep>
   <time name="dav">  125.54  125.79</time>
   <time name="total">  131.92  132.19</time>
   <energy>
    <i name="e_fr_energy">   -427.46737813 </i>
    <i name="e_wo_entrp">   -427.41415102 </i>
    <i name="e_0_energy">   -427.44076457 </i>
   </energy>
  </scstep>
  <scstep>
   <time name="dav">  159.04  159.30</time>
   <time name="total">  164.54  164.82</time>
   <energy>
    <i name="e_fr_energy">   -427.46739820 </i>
    <i name="e_wo_entrp">   -427.41417491 </i>
    <i name="e_0_energy">   -427.44078656 </i>
   </energy>
  </scstep>
  <scstep>
   <time name="dav">  116.56  116.71</time>
   <time name="total">  122.02  122.17</time>
   <energy>
    <i name="e_fr_energy">   -427.46741784 </i>
    <i name="e_wo_entrp">   -427.41420065 </i>
    <i name="e_0_energy">   -427.44080925 </i>
   </energy>
  </scstep>
  <scstep>
   <time name="dav">  121.33  121.49</time>
   <time name="total">  126.80  126.97</time>
   <energy>
    <i name="e_fr_energy">   -427.46742642 </i>
    <i name="e_wo_entrp">   -427.41421196 </i>
    <i name="e_0_energy">   -427.44081919 </i>
   </energy>
  </scstep>
  <scstep>
   <time name="dav">  115.13  115.28</time>
   <time name="total">  120.61  120.78</time>
   <energy>
    <i name="e_fr_energy">   -427.46743584 </i>
    <i name="e_wo_entrp">   -427.41422109 </i>
    <i name="e_0_energy">   -427.44082847 </i>
   </energy>
  </scstep>
  <scstep>
   <time name="dav">  116.96  117.17</time>
   <time name="total">  123.18  123.39</time>
   <energy>
    <i name="e_fr_energy">   -427.46743897 </i>
    <i name="e_wo_entrp">   -427.41422257 </i>
    <i name="e_0_energy">   -427.44083077 </i>
   </energy>
  </scstep>
  <scstep>
   <time name="dav">  110.06  110.20</time>
   <time name="total">  115.50  115.65</time>
   <energy>
    <i name="e_fr_energy">   -427.46744038 </i>
    <i name="e_wo_entrp">   -427.41422347 </i>
    <i name="e_0_energy">   -427.44083193 </i>
   </energy>
  </scstep>
  <scstep>
   <time name="dav">  109.44  109.58</time>
   <time name="total">  114.85  115.00</time>
   <energy>
    <i name="e_fr_energy">   -427.46744150 </i>
    <i name="e_wo_entrp">   -427.41422415 </i>
    <i name="e_0_energy">   -427.44083282 </i>
   </energy>
  </scstep>
  <scstep>
   <time name="dav">  110.25  110.40</time>
   <time name="total">  110.74  110.89</time>
   <energy>
    <i name="alphaZ">   6463.29446255 </i>
    <i name="ewald"> 664607.03405049 </i>
    <i name="hartreedc">-813397.95445648 </i>
    <i name="XCdc">   4896.83175892 </i>
    <i name="pawpsdc"> 123760.00924704 </i>
    <i name="pawaedc">-139977.07175679 </i>
    <i name="eentropy">     -0.05321724 </i>
    <i name="bandstr">  -4298.38824643 </i>
    <i name="atom"> 157518.83071590 </i>
    <i name="e_fr_energy">   -427.46744205 </i>
    <i name="e_wo_entrp">   -427.41422481 </i>
    <i name="e_0_energy">   -427.44083343 </i>
   </energy>
  </scstep>
  <structure>
   <crystal>
    <varray name="basis" >
     <v>      10.28518105       0.00000000       0.00000000 </v>
     <v>       5.14259052       8.90722807       0.00000000 </v>
     <v>       0.00000000       0.00000000      27.79016876 </v>
    </varray>
    <i name="volume">   2545.92553775 </i>
    <varray name="rec_basis" >
     <v>       0.09722726      -0.05613419       0.00000000 </v>
     <v>       0.00000000       0.11226837       0.00000000 </v>
     <v>       0.00000000       0.00000000       0.03598395 </v>
    </varray>
   </crystal>
   <varray name="positions" >
    <v>       0.00000000       0.00000000       0.22663990 </v>
    <v>       0.00000000       0.50000000       0.22663990 </v>
    <v>       0.50000000       0.00000000       0.22663990 </v>
    <v>       0.50000000       0.50000000       0.22663990 </v>
    <v>       0.00000000       0.25000000       0.22663990 </v>
    <v>       0.00000000       0.75000000       0.22663990 </v>
    <v>       0.50000000       0.25000000       0.22663990 </v>
    <v>       0.50000000       0.75000000       0.22663990 </v>
    <v>       0.25000000       0.00000000       0.22663990 </v>
    <v>       0.25000000       0.50000000       0.22663990 </v>
    <v>       0.75000000       0.00000000       0.22663990 </v>
    <v>       0.75000000       0.50000000       0.22663990 </v>
    <v>       0.25000000       0.25000000       0.22663990 </v>
    <v>       0.25000000       0.75000000       0.22663990 </v>
    <v>       0.75000000       0.25000000       0.22663990 </v>
    <v>       0.75000000       0.75000000       0.22663990 </v>
    <v>       0.16666666       0.16666666       0.30218653 </v>
    <v>       0.16666666       0.66666666       0.30218653 </v>
    <v>       0.66666666       0.16666666       0.30218653 </v>
    <v>       0.66666666       0.66666666       0.30218653 </v>
    <v>       0.16666666       0.41666666       0.30218653 </v>
    <v>       0.16666666       0.91666666       0.30218653 </v>
    <v>       0.66666666       0.41666666       0.30218653 </v>
    <v>       0.66666666       0.91666666       0.30218653 </v>
    <v>       0.41666666       0.16666666       0.30218653 </v>
    <v>       0.41666666       0.66666666       0.30218653 </v>
    <v>       0.91666666       0.16666666       0.30218653 </v>
    <v>       0.91666666       0.66666666       0.30218653 </v>
    <v>       0.41666666       0.41666666       0.30218653 </v>
    <v>       0.41666666       0.91666666       0.30218653 </v>
    <v>       0.91666666       0.41666666       0.30218653 </v>
    <v>       0.91666666       0.91666666       0.30218653 </v>
    <v>       0.08333333       0.08333333       0.37716320 </v>
    <v>       0.08333333       0.58333333       0.37716320 </v>
    <v>       0.58333333       0.08333333       0.37716320 </v>
    <v>       0.58333333       0.58333333       0.37716320 </v>
    <v>       0.08351614       0.33324190       0.37729758 </v>
    <v>       0.08351614       0.83324190       0.37729758 </v>
    <v>       0.58351614       0.33324190       0.37729758 </v>
    <v>       0.58351614       0.83324190       0.37729758 </v>
    <v>       0.33324190       0.08351614       0.37729758 </v>
    <v>       0.33324190       0.58351614       0.37729758 </v>
    <v>       0.83324190       0.08351614       0.37729758 </v>
    <v>       0.83324190       0.58351614       0.37729758 </v>
    <v>       0.33324190       0.33324190       0.37729758 </v>
    <v>       0.33324190       0.83324190       0.37729758 </v>
    <v>       0.83324190       0.33324190       0.37729758 </v>
    <v>       0.83324190       0.83324190       0.37729758 </v>
    <v>       0.00012997       0.00012997       0.45242342 </v>
    <v>       0.00012997       0.50012997       0.45242342 </v>
    <v>       0.50012997       0.00012997       0.45242342 </v>
    <v>       0.50012997       0.50012997       0.45242342 </v>
    <v>       0.00012997       0.24974005       0.45242342 </v>
    <v>       0.00012997       0.74974005       0.45242342 </v>
    <v>       0.50012997       0.24974005       0.45242342 </v>
    <v>       0.50012997       0.74974005       0.45242342 </v>
    <v>       0.24974005       0.00012997       0.45242342 </v>
    <v>       0.24974005       0.50012997       0.45242342 </v>
    <v>       0.74974005       0.00012997       0.45242342 </v>
    <v>       0.74974005       0.50012997       0.45242342 </v>
    <v>       0.25000000       0.25000000       0.45288750 </v>
    <v>       0.25000000       0.75000000       0.45288750 </v>
    <v>       0.75000000       0.25000000       0.45288750 </v>
    <v>       0.75000000       0.75000000       0.45288750 </v>
    <v>       0.16523098       0.16660598       0.52763018 </v>
    <v>       0.16660598       0.66660598       0.52813907 </v>
    <v>       0.66660598       0.16660598       0.52813907 </v>
    <v>       0.66660598       0.66660598       0.52813907 </v>
    <v>       0.16660598       0.41678801       0.52813907 </v>
    <v>       0.16660598       0.91678801       0.52813907 </v>
    <v>       0.66660598       0.41678801       0.52813907 </v>
    <v>       0.66660598       0.91678801       0.52813907 </v>
    <v>       0.41678801       0.16660598       0.52813907 </v>
    <v>       0.41678801       0.66660598       0.52813907 </v>
    <v>       0.91678801       0.16660598       0.52813907 </v>
    <v>       0.91678801       0.66660598       0.52813907 </v>
    <v>       0.41666666       0.41666666       0.52741939 </v>
    <v>       0.41666666       0.91666666       0.52741939 </v>
    <v>       0.91666666       0.41666666       0.52741939 </v>
    <v>       0.91666666       0.91666666       0.52741939 </v>
    <v>       0.08333333       0.08333333       0.60253339 </v>
    <v>       0.08333333       0.58333333       0.60253339 </v>
    <v>       0.58333333       0.08333333       0.60253339 </v>
    <v>       0.58333333       0.58333333       0.60253339 </v>
    <v>       0.08130935       0.33434529       0.60320464 </v>
    <v>       0.08130935       0.83434529       0.60320464 </v>
    <v>       0.58130935       0.33434529       0.60320464 </v>
    <v>       0.58130935       0.83434529       0.60320464 </v>
    <v>       0.33434529       0.08130935       0.60320464 </v>
    <v>       0.33434529       0.58130935       0.60320464 </v>
    <v>       0.83434529       0.08130935       0.60320464 </v>
    <v>       0.83434529       0.58130935       0.60320464 </v>
    <v>       0.33434529       0.33434529       0.60320464 </v>
    <v>       0.33434529       0.83434529       0.60320464 </v>
    <v>       0.83434529       0.33434529       0.60320464 </v>
    <v>       0.83434529       0.83434529       0.60320464 </v>
    <v>       0.49714648       0.49714648       0.68057248 </v>
    <v>       0.49714648       0.99714648       0.68057248 </v>
    <v>       0.99714648       0.49714648       0.68057248 </v>
    <v>       0.99714648       0.99714648       0.68057248 </v>
    <v>       0.49714648       0.25570704       0.68057248 </v>
    <v>       0.49714648       0.75570704       0.68057248 </v>
    <v>       0.99714648       0.25570704       0.68057248 </v>
    <v>       0.99714648       0.75570704       0.68057248 </v>
    <v>       0.25570704       0.49714648       0.68057248 </v>
    <v>       0.25570704       0.99714648       0.68057248 </v>
    <v>       0.75570704       0.49714648       0.68057248 </v>
    <v>       0.75570704       0.99714648       0.68057248 </v>
    <v>       0.25000000       0.25000000       0.67480871 </v>
    <v>       0.25000000       0.75000000       0.67480871 </v>
    <v>       0.75000000       0.25000000       0.67480871 </v>
    <v>       0.75000000       0.75000000       0.67480871 </v>
    <v>       0.08333333       0.08333333       0.72043888 </v>
    <v>       0.08333333       0.58333333       0.72043888 </v>
    <v>       0.58333333       0.08333333       0.72043888 </v>
    <v>       0.58333333       0.58333333       0.72043888 </v>
   </varray>
  </structure>
  <varray name="forces" >
   <v>       0.00793650       0.00457855       0.07170254 </v>
   <v>       0.00788522       0.00446721       0.07170343 </v>
   <v>       0.00776676       0.00463221       0.07172573 </v>
   <v>       0.00774801       0.00452767       0.07164852 </v>
   <v>      -0.00006963      -0.00913477       0.07165863 </v>
   <v>       0.00006645      -0.00917770       0.07167539 </v>
   <v>      -0.00011349      -0.00914592       0.07162863 </v>
   <v>       0.00003289      -0.00906715       0.07158482 </v>
   <v>      -0.00796226       0.00451253       0.07167867 </v>
   <v>      -0.00795076       0.00435837       0.07167905 </v>
   <v>      -0.00793884       0.00452705       0.07177371 </v>
   <v>      -0.00790715       0.00453878       0.07158994 </v>
   <v>       0.00001975       0.00007117       0.08626783 </v>
   <v>       0.00016321       0.00000199       0.08637323 </v>
   <v>       0.00007710       0.00021187       0.08633892 </v>
   <v>       0.00011093       0.00006354       0.08646135 </v>
   <v>       0.00702696       0.00405823      -0.07991305 </v>
   <v>       0.00685496       0.00409324      -0.07989771 </v>
   <v>       0.00690509       0.00396723      -0.07993642 </v>
   <v>       0.00682782       0.00406046      -0.07991748 </v>
   <v>       0.00010007      -0.00816327      -0.07993482 </v>
   <v>       0.00022936      -0.00809561      -0.08000359 </v>
   <v>      -0.00009360      -0.00838371      -0.08015604 </v>
   <v>       0.00014699      -0.00822773      -0.08003008 </v>
   <v>      -0.00691748       0.00391641      -0.07993889 </v>
   <v>      -0.00741885       0.00404352      -0.08004993 </v>
   <v>      -0.00694194       0.00415638      -0.08000212 </v>
   <v>      -0.00711861       0.00405731      -0.08007897 </v>
   <v>      -0.00006582       0.00016012      -0.05929733 </v>
   <v>       0.00029874      -0.00004082      -0.05919738 </v>
   <v>       0.00011586       0.00018295      -0.05922199 </v>
   <v>       0.00009536       0.00022243      -0.05925729 </v>
   <v>      -0.00012398      -0.00003004      -0.00093569 </v>
   <v>       0.00004258      -0.00016601       0.00010502 </v>
   <v>      -0.00009581       0.00006318      -0.00004120 </v>
   <v>       0.00013507       0.00003476      -0.00012185 </v>
   <v>       0.00000421       0.00020050      -0.00087068 </v>
   <v>       0.00019147       0.00007308       0.00018244 </v>
   <v>       0.00011745       0.00004467      -0.00007570 </v>
   <v>      -0.00004407       0.00010128      -0.00004421 </v>
   <v>       0.00014363      -0.00002445      -0.00072741 </v>
   <v>       0.00009654      -0.00002754      -0.00010958 </v>
   <v>       0.00013672       0.00005058       0.00013663 </v>
   <v>       0.00008885      -0.00013768       0.00009651 </v>
   <v>       0.00009122       0.00003409      -0.00006712 </v>
   <v>      -0.00002863      -0.00005454      -0.00003700 </v>
   <v>      -0.00005599      -0.00000364      -0.00016029 </v>
   <v>      -0.00011514      -0.00001563       0.00003802 </v>
   <v>      -0.00058325      -0.00047561      -0.00055714 </v>
   <v>       0.00036348       0.00052171      -0.00001561 </v>
   <v>       0.00033099       0.00002304       0.00044916 </v>
   <v>       0.00002992       0.00002877       0.00029566 </v>
   <v>      -0.01573362       0.01012674      -0.02633674 </v>
   <v>      -0.00004723       0.00016639       0.00008678 </v>
   <v>      -0.00052183      -0.00004660       0.00011194 </v>
   <v>      -0.00009168      -0.00018398      -0.00027431 </v>
   <v>       0.00166732      -0.01183262      -0.01535065 </v>
   <v>      -0.00026431      -0.00023489       0.00010585 </v>
   <v>       0.00018671      -0.00000764       0.00003336 </v>
   <v>      -0.00065607       0.00059380      -0.00042673 </v>
   <v>       0.00535096       0.00217186      -0.00571656 </v>
   <v>      -0.00016114      -0.00059120      -0.00016983 </v>
   <v>      -0.00099911       0.00025997      -0.00038735 </v>
   <v>      -0.00007657      -0.00022207      -0.00000126 </v>
   <v>       0.09030419      -0.00079802       0.09202914 </v>
   <v>      -0.00002494      -0.00018705      -0.00009305 </v>
   <v>      -0.00024706      -0.00012809      -0.00003232 </v>
   <v>       0.00010295       0.00021904      -0.00003548 </v>
   <v>      -0.00471075      -0.01102848       0.00141019 </v>
   <v>      -0.00488513      -0.01140164       0.00141556 </v>
   <v>      -0.00048587       0.00038720      -0.00005009 </v>
   <v>      -0.00076605       0.00038744       0.00008570 </v>
   <v>      -0.02330444       0.00017436       0.00115147 </v>
   <v>       0.00009495       0.00009226       0.00010704 </v>
   <v>      -0.02524630       0.00007861       0.00143423 </v>
   <v>      -0.00002568      -0.00016720      -0.00001253 </v>
   <v>      -0.00044584      -0.00025753      -0.00009160 </v>
   <v>      -0.00485473       0.01061454       0.00125139 </v>
   <v>      -0.00527464       0.01151050       0.00122188 </v>
   <v>      -0.00075270      -0.00043168       0.00018263 </v>
   <v>       0.00605526       0.00247095      -0.00579642 </v>
   <v>      -0.00013365      -0.00052991      -0.00032147 </v>
   <v>      -0.00089999       0.00025658      -0.00070237 </v>
   <v>      -0.00004851      -0.00007786      -0.00020395 </v>
   <v>       0.00200247      -0.01139684      -0.01581084 </v>
   <v>       0.00022945      -0.00024500      -0.00020517 </v>
   <v>       0.00018981       0.00002273      -0.00016119 </v>
   <v>      -0.00034209       0.00039631      -0.00086794 </v>
   <v>      -0.01393039       0.00992992      -0.02543623 </v>
   <v>      -0.00004426       0.00014170      -0.00019709 </v>
   <v>      -0.00029298       0.00022311      -0.00030826 </v>
   <v>      -0.00002449       0.00000918      -0.00058125 </v>
   <v>      -0.00097729      -0.00081302      -0.00074959 </v>
   <v>       0.00013710       0.00039171      -0.00042745 </v>
   <v>      -0.00000703       0.00020771      -0.00004191 </v>
   <v>       0.00010400       0.00000464      -0.00020224 </v>
   <v>      -0.00019632      -0.00004288      -0.00059422 </v>
   <v>       0.00001692      -0.00027623      -0.00065766 </v>
   <v>      -0.00001137       0.00002898      -0.00074506 </v>
   <v>      -0.00016330      -0.00010668      -0.00091819 </v>
   <v>       0.00032956       0.00014286      -0.00042041 </v>
   <v>      -0.00001195       0.00008502      -0.00060572 </v>
   <v>      -0.00012570      -0.00015691      -0.00118589 </v>
   <v>       0.00010589       0.00012194      -0.00085010 </v>
   <v>       0.00033514       0.00017427      -0.00053799 </v>
   <v>      -0.00031261       0.00004229      -0.00152289 </v>
   <v>       0.00006578      -0.00018454      -0.00081952 </v>
   <v>       0.00019024       0.00001371      -0.00080772 </v>
   <v>      -0.00030153      -0.00011403      -0.00148372 </v>
   <v>       0.00000303      -0.00003189      -0.00003078 </v>
   <v>       0.00004751       0.00006926      -0.00015070 </v>
   <v>      -0.00018448      -0.00005140      -0.00031657 </v>
   <v>       0.00025834       0.00016210       0.00190051 </v>
   <v>      -0.00013618      -0.00024426       0.00146429 </v>
   <v>      -0.00034435       0.00010684       0.00119840 </v>
   <v>      -0.00034831      -0.00020742       0.00125138 </v>
  </varray>
  <varray name="stress" >
   <v>      -2.06479814      -0.00353509       0.00034454 </v>
   <v>      -0.00353507      -2.06364826      -0.00088550 </v>
   <v>       0.00034455      -0.00088551      -2.16261863 </v>
  </varray>
  <energy>
   <i name="e_fr_energy">   -427.46744205 </i>
   <i name="e_wo_entrp">   -427.44083343 </i>
   <i name="e_0_energy">     -0.05321724 </i>
  </energy>
  <time name="totalsc"> 6980.29 6992.19</time>
  <eigenvalues>
   <array>
    <dimension dim="1">band</dimension>
    <dimension dim="2">kpoint</dimension>
    <dimension dim="3">spin</dimension>
    <field>eigene</field>
    <field>occ</field>
    <set>
     <set comment="spin 1">
      <set comment="kpoint 1">
       <r>  -18.6065    1.0000 </r>
       <r>  -18.5937    1.0000 </r>
       <r>  -18.5936    1.0000 </r>
       <r>  -18.5935    1.0000 </r>
       <r>   -9.4531    1.0000 </r>
       <r>   -8.9599    1.0000 </r>
       <r>   -8.1740    1.0000 </r>
       <r>   -7.6002    1.0000 </r>
       <r>   -7.5991    1.0000 </r>
       <r>   -7.5981    1.0000 </r>
       <r>   -7.5794    1.0000 </r>
       <r>   -7.5770    1.0000 </r>
       <r>   -7.5761    1.0000 </r>
       <r>   -7.2191    1.0000 </r>
       <r>   -7.2189    1.0000 </r>
       <r>   -7.2178    1.0000 </r>
       <r>   -7.1999    1.0000 </r>
       <r>   -7.1456    1.0000 </r>
       <r>   -7.1450    1.0000 </r>
       <r>   -7.1440    1.0000 </r>
       <r>   -6.6276    1.0000 </r>
       <r>   -6.6269    1.0000 </r>
       <r>   -6.6267    1.0000 </r>
       <r>   -6.4864    1.0000 </r>
       <r>   -6.4851    1.0000 </r>
       <r>   -6.4850    1.0000 </r>
       <r>   -6.2512    1.0000 </r>
       <r>   -5.9483    1.0000 </r>
       <r>   -5.9479    1.0000 </r>
       <r>   -5.9469    1.0000 </r>
       <r>   -5.7430    1.0000 </r>
       <r>   -5.7415    1.0000 </r>
       <r>   -5.7408    1.0000 </r>
       <r>   -5.6689    1.0000 </r>
       <r>   -5.6245    1.0000 </r>
       <r>   -5.6245    1.0000 </r>
       <r>   -5.4387    1.0000 </r>
       <r>   -5.4097    1.0000 </r>
       <r>   -5.4097    1.0000 </r>
       <r>   -5.4096    1.0000 </r>
       <r>   -5.3414    1.0000 </r>
       <r>   -5.3411    1.0000 </r>
       <r>   -5.3409    1.0000 </r>
       <r>   -5.3239    1.0000 </r>
       <r>   -5.2834    1.0000 </r>
       <r>   -5.2832    1.0000 </r>
       <r>   -5.2150    1.0000 </r>
       <r>   -5.2090    1.0000 </r>
       <r>   -5.2082    1.0000 </r>
       <r>   -5.2082    1.0000 </r>
       <r>   -5.1341    1.0000 </r>
       <r>   -5.1340    1.0000 </r>
       <r>   -5.1235    1.0000 </r>
       <r>   -5.0554    1.0000 </r>
       <r>   -5.0330    1.0000 </r>
       <r>   -5.0328    1.0000 </r>
       <r>   -5.0040    1.0000 </r>
       <r>   -5.0036    1.0000 </r>
       <r>   -5.0032    1.0000 </r>
       <r>   -4.9789    1.0000 </r>
       <r>   -4.9779    1.0000 </r>
       <r>   -4.9772    1.0000 </r>
       <r>   -4.9623    1.0000 </r>
       <r>   -4.9619    1.0000 </r>
       <r>   -4.9571    1.0000 </r>
       <r>   -4.9566    1.0000 </r>
       <r>   -4.9555    1.0000 </r>
       <r>   -4.9349    1.0000 </r>
       <r>   -4.8824    1.0000 </r>
       <r>   -4.8819    1.0000 </r>
       <r>   -4.8812    1.0000 </r>
       <r>   -4.8541    1.0000 </r>
       <r>   -4.8536    1.0000 </r>
       <r>   -4.8521    1.0000 </r>
       <r>   -4.8408    1.0000 </r>
       <r>   -4.8248    1.0000 </r>
       <r>   -4.8245    1.0000 </r>
       <r>   -4.8123    1.0000 </r>
       <r>   -4.8116    1.0000 </r>
       <r>   -4.8111    1.0000 </r>
       <r>   -4.7497    1.0000 </r>
       <r>   -4.7489    1.0000 </r>
       <r>   -4.7481    1.0000 </r>
       <r>   -4.7064    1.0000 </r>
       <r>   -4.7063    1.0000 </r>
       <r>   -4.7053    1.0000 </r>
       <r>   -4.7027    1.0000 </r>
       <r>   -4.6945    1.0000 </r>
       <r>   -4.6943    1.0000 </r>
       <r>   -4.6220    1.0000 </r>
       <r>   -4.6212    1.0000 </r>
       <r>   -4.6203    1.0000 </r>
       <r>   -4.5862    1.0000 </r>
       <r>   -4.5860    1.0000 </r>
       <r>   -4.5854    1.0000 </r>
       <r>   -4.5818    1.0000 </r>
       <r>   -4.5779    1.0000 </r>
       <r>   -4.5778    1.0000 </r>
       <r>   -4.5453    1.0000 </r>
       <r>   -4.5392    1.0000 </r>
       <r>   -4.5385    1.0000 </r>
       <r>   -4.5381    1.0000 </r>
       <r>   -4.5380    1.0000 </r>
       <r>   -4.5371    1.0000 </r>
       <r>   -4.5281    1.0000 </r>
       <r>   -4.5278    1.0000 </r>
       <r>   -4.5277    1.0000 </r>
       <r>   -4.5042    1.0000 </r>
       <r>   -4.5037    1.0000 </r>
       <r>   -4.5026    1.0000 </r>
       <r>   -4.4603    1.0000 </r>
       <r>   -4.4602    1.0000 </r>
       <r>   -4.4602    1.0000 </r>
       <r>   -4.4551    1.0000 </r>
       <r>   -4.4545    1.0000 </r>
       <r>   -4.4543    1.0000 </r>
       <r>   -4.4470    1.0000 </r>
       <r>   -4.4464    1.0000 </r>
       <r>   -4.4458    1.0000 </r>
       <r>   -4.4065    1.0000 </r>
       <r>   -4.4060    1.0000 </r>
       <r>   -4.4055    1.0000 </r>
       <r>   -4.3888    1.0000 </r>
       <r>   -4.3887    1.0000 </r>
       <r>   -4.3501    1.0000 </r>
       <r>   -4.3492    1.0000 </r>
       <r>   -4.3488    1.0000 </r>
       <r>   -4.3375    1.0000 </r>
       <r>   -4.2428    1.0000 </r>
       <r>   -4.2426    1.0000 </r>
       <r>   -4.2287    1.0000 </r>
       <r>   -4.2284    1.0000 </r>
       <r>   -4.2275    1.0000 </r>
       <r>   -4.2206    1.0000 </r>
       <r>   -4.2198    1.0000 </r>
       <r>   -4.2187    1.0000 </r>
       <r>   -4.2181    1.0000 </r>
       <r>   -4.2174    1.0000 </r>
       <r>   -4.2171    1.0000 </r>
       <r>   -4.2143    1.0000 </r>
       <r>   -4.2140    1.0000 </r>
       <r>   -4.2138    1.0000 </r>
       <r>   -4.2111    1.0000 </r>
       <r>   -4.2111    1.0000 </r>
       <r>   -4.2106    1.0000 </r>
       <r>   -4.1803    1.0000 </r>
       <r>   -4.1794    1.0000 </r>
       <r>   -4.1791    1.0000 </r>
       <r>   -4.0972    1.0000 </r>
       <r>   -4.0968    1.0000 </r>
       <r>   -4.0961    1.0000 </r>
       <r>   -4.0786    1.0000 </r>
       <r>   -4.0783    1.0000 </r>
       <r>   -4.0778    1.0000 </r>
       <r>   -4.0762    1.0000 </r>
       <r>   -4.0759    1.0000 </r>
       <r>   -4.0758    1.0000 </r>
       <r>   -4.0570    1.0000 </r>
       <r>   -4.0564    1.0000 </r>
       <r>   -4.0562    1.0000 </r>
       <r>   -4.0443    1.0000 </r>
       <r>   -4.0440    1.0000 </r>
       <r>   -4.0438    1.0000 </r>
       <r>   -4.0169    1.0000 </r>
       <r>   -4.0048    1.0000 </r>
       <r>   -4.0044    1.0000 </r>
       <r>   -4.0042    1.0000 </r>
       <r>   -3.9695    1.0000 </r>
       <r>   -3.9694    1.0000 </r>
       <r>   -3.9386    1.0000 </r>
       <r>   -3.9381    1.0000 </r>
       <r>   -3.9375    1.0000 </r>
       <r>   -3.9291    1.0000 </r>
       <r>   -3.9288    1.0000 </r>
       <r>   -3.9287    1.0000 </r>
       <r>   -3.9098    1.0000 </r>
       <r>   -3.9092    1.0000 </r>
       <r>   -3.9088    1.0000 </r>
       <r>   -3.8796    1.0000 </r>
       <r>   -3.8791    1.0000 </r>
       <r>   -3.8787    1.0000 </r>
       <r>   -3.8777    1.0000 </r>
       <r>   -3.8770    1.0000 </r>
       <r>   -3.8765    1.0000 </r>
       <r>   -3.8322    1.0000 </r>
       <r>   -3.8310    1.0000 </r>
       <r>   -3.8307    1.0000 </r>
       <r>   -3.8304    1.0000 </r>
       <r>   -3.8123    1.0000 </r>
       <r>   -3.8118    1.0000 </r>
       <r>   -3.8113    1.0000 </r>
       <r>   -3.7990    1.0000 </r>
       <r>   -3.7983    1.0000 </r>
       <r>   -3.7974    1.0000 </r>
       <r>   -3.7861    1.0000 </r>
       <r>   -3.7859    1.0000 </r>
       <r>   -3.7854    1.0000 </r>
       <r>   -3.7747    1.0000 </r>
       <r>   -3.7745    1.0000 </r>
       <r>   -3.7735    1.0000 </r>
       <r>   -3.7506    1.0000 </r>
       <r>   -3.7505    1.0000 </r>
       <r>   -3.7502    1.0000 </r>
       <r>   -3.7090    1.0000 </r>
       <r>   -3.7089    1.0000 </r>
       <r>   -3.7086    1.0000 </r>
       <r>   -3.7075    1.0000 </r>
       <r>   -3.7068    1.0000 </r>
       <r>   -3.7066    1.0000 </r>
       <r>   -3.6827    1.0000 </r>
       <r>   -3.6821    1.0000 </r>
       <r>   -3.6818    1.0000 </r>
       <r>   -3.6765    1.0000 </r>
       <r>   -3.6765    1.0000 </r>
       <r>   -3.6757    1.0000 </r>
       <r>   -3.6686    1.0000 </r>
       <r>   -3.6685    1.0000 </r>
       <r>   -3.6410    1.0000 </r>
       <r>   -3.6407    1.0000 </r>
       <r>   -3.6397    1.0000 </r>
       <r>   -3.6172    1.0000 </r>
       <r>   -3.6162    1.0000 </r>
       <r>   -3.6152    1.0000 </r>
       <r>   -3.6141    1.0000 </r>
       <r>   -3.6027    1.0000 </r>
       <r>   -3.6024    1.0000 </r>
       <r>   -3.6022    1.0000 </r>
       <r>   -3.6013    1.0000 </r>
       <r>   -3.6006    1.0000 </r>
       <r>   -3.5995    1.0000 </r>
       <r>   -3.5970    1.0000 </r>
       <r>   -3.5970    1.0000 </r>
       <r>   -3.5964    1.0000 </r>
       <r>   -3.5811    1.0000 </r>
       <r>   -3.5806    1.0000 </r>
       <r>   -3.5804    1.0000 </r>
       <r>   -3.5504    1.0000 </r>
       <r>   -3.5500    1.0000 </r>
       <r>   -3.5499    1.0000 </r>
       <r>   -3.5373    1.0000 </r>
       <r>   -3.5299    1.0000 </r>
       <r>   -3.5116    1.0000 </r>
       <r>   -3.5115    1.0000 </r>
       <r>   -3.4477    1.0000 </r>
       <r>   -3.4476    1.0000 </r>
       <r>   -3.4467    1.0000 </r>
       <r>   -3.4418    1.0000 </r>
       <r>   -3.4338    1.0000 </r>
       <r>   -3.4336    1.0000 </r>
       <r>   -3.4334    1.0000 </r>
       <r>   -3.4287    1.0000 </r>
       <r>   -3.4278    1.0000 </r>
       <r>   -3.4275    1.0000 </r>
       <r>   -3.4196    1.0000 </r>
       <r>   -3.4188    1.0000 </r>
       <r>   -3.4186    1.0000 </r>
       <r>   -3.4179    1.0000 </r>
       <r>   -3.4179    1.0000 </r>
       <r>   -3.4161    1.0000 </r>
       <r>   -3.4155    1.0000 </r>
       <r>   -3.4149    1.0000 </r>
       <r>   -3.4099    1.0000 </r>
       <r>   -3.3984    1.0000 </r>
       <r>   -3.3981    1.0000 </r>
       <r>   -3.3975    1.0000 </r>
       <r>   -3.3863    1.0000 </r>
       <r>   -3.3863    1.0000 </r>
       <r>   -3.3750    1.0000 </r>
       <r>   -3.3632    1.0000 </r>
       <r>   -3.3631    1.0000 </r>
       <r>   -3.3622    1.0000 </r>
       <r>   -3.3499    1.0000 </r>
       <r>   -3.3497    1.0000 </r>
       <r>   -3.3462    1.0000 </r>
       <r>   -3.3462    1.0000 </r>
       <r>   -3.3461    1.0000 </r>
       <r>   -3.3359    1.0000 </r>
       <r>   -3.3356    1.0000 </r>
       <r>   -3.3351    1.0000 </r>
       <r>   -3.3145    1.0000 </r>
       <r>   -3.3144    1.0000 </r>
       <r>   -3.3050    1.0000 </r>
       <r>   -3.3042    1.0000 </r>
       <r>   -3.3038    1.0000 </r>
[...]
       <r>   -14.5221     0.0000     8.0000 </r>
       <r>   -14.4279     0.0000     8.0000 </r>
       <r>   -14.3338     0.0000     8.0000 </r>
       <r>   -14.2396     0.0000     8.0000 </r>
       <r>   -14.1454     0.0000     8.0000 </r>
       <r>   -14.0512     0.0000     8.0000 </r>
       <r>   -13.9570     0.0000     8.0000 </r>
       <r>   -13.8628     0.0000     8.0000 </r>
       <r>   -13.7686     0.0000     8.0000 </r>
       <r>   -13.6744     0.0000     8.0000 </r>
       <r>   -13.5802     0.0000     8.0000 </r>
       <r>   -13.4861     0.0000     8.0000 </r>
       <r>   -13.3919     0.0000     8.0000 </r>
       <r>   -13.2977     0.0000     8.0000 </r>
       <r>   -13.2035     0.0000     8.0000 </r>
       <r>   -13.1093     0.0000     8.0000 </r>
       <r>   -13.0151     0.0000     8.0000 </r>
       <r>   -12.9209     0.0000     8.0000 </r>
       <r>   -12.8267     0.0000     8.0000 </r>
       <r>   -12.7325     0.0000     8.0000 </r>
       <r>   -12.6384     0.0000     8.0000 </r>
       <r>   -12.5442     0.0000     8.0000 </r>
       <r>   -12.4500     0.0000     8.0000 </r>
       <r>   -12.3558     0.0000     8.0000 </r>
       <r>   -12.2616     0.0000     8.0000 </r>
       <r>   -12.1674     0.0000     8.0000 </r>
       <r>   -12.0732     0.0000     8.0000 </r>
       <r>   -11.9790     0.0000     8.0000 </r>
       <r>   -11.8848     0.0000     8.0000 </r>
       <r>   -11.7907     0.0000     8.0000 </r>
       <r>   -11.6965     0.0000     8.0000 </r>
       <r>   -11.6023     0.0000     8.0000 </r>
       <r>   -11.5081     0.0000     8.0000 </r>
       <r>   -11.4139     0.0000     8.0000 </r>
       <r>   -11.3197     0.0000     8.0000 </r>
       <r>   -11.2255     0.0000     8.0000 </r>
       <r>   -11.1313     0.0000     8.0000 </r>
       <r>   -11.0372     0.0000     8.0000 </r>
       <r>   -10.9430     0.0000     8.0000 </r>
       <r>   -10.8488     0.0000     8.0000 </r>
       <r>   -10.7546     0.0000     8.0000 </r>
       <r>   -10.6604     0.0000     8.0000 </r>
       <r>   -10.5662     0.0000     8.0000 </r>
       <r>   -10.4720     0.0000     8.0000 </r>
       <r>   -10.3778     0.0000     8.0000 </r>
       <r>   -10.2836     0.0000     8.0000 </r>
       <r>   -10.1895     0.0000     8.0000 </r>
       <r>   -10.0953     0.0000     8.0000 </r>
       <r>   -10.0011     0.0000     8.0000 </r>
       <r>    -9.9069     0.0000     8.0000 </r>
       <r>    -9.8127     0.0000     8.0000 </r>
       <r>    -9.7185     0.0000     8.0000 </r>
       <r>    -9.6243     0.0000     8.0000 </r>
       <r>    -9.5301     0.0195     8.0018 </r>
       <r>    -9.4359     0.9020     8.0868 </r>
       <r>    -9.3418     3.2906     8.3967 </r>
       <r>    -9.2476     4.9950     8.8672 </r>
       <r>    -9.1534     0.2804     8.8936 </r>
       <r>    -9.0592     5.8698     9.4465 </r>
       <r>    -8.9650     6.2500    10.0352 </r>
       <r>    -8.8708     6.3966    10.6377 </r>
       <r>    -8.7766     6.2044    11.2221 </r>
       <r>    -8.6824     0.5910    11.2777 </r>
       <r>    -8.5882    15.5156    12.7391 </r>
       <r>    -8.4941    11.2147    13.7954 </r>
       <r>    -8.3999     6.3251    14.3912 </r>
       <r>    -8.3057     6.1839    14.9736 </r>
       <r>    -8.2115     0.7973    15.0487 </r>
       <r>    -8.1173    12.8485    16.2589 </r>
       <r>    -8.0231    14.6868    17.6422 </r>
       <r>    -7.9289    13.2010    18.8856 </r>
       <r>    -7.8347    19.6428    20.7357 </r>
       <r>    -7.7405     6.8826    21.3840 </r>
       <r>    -7.6464     5.9526    21.9447 </r>
       <r>    -7.5522    13.0369    23.1726 </r>
       <r>    -7.4580    15.7601    24.6570 </r>
       <r>    -7.3638    16.5239    26.2134 </r>
       <r>    -7.2696     8.8519    27.0471 </r>
       <r>    -7.1754    20.5609    28.9837 </r>
       <r>    -7.0812    16.3268    30.5215 </r>
       <r>    -6.9870    13.1607    31.7611 </r>
       <r>    -6.8928    16.7191    33.3359 </r>
       <r>    -6.7987    31.7767    36.3289 </r>
       <r>    -6.7045    15.1403    37.7549 </r>
       <r>    -6.6103    18.4409    39.4919 </r>
       <r>    -6.5161    13.4967    40.7631 </r>
       <r>    -6.4219    24.4066    43.0619 </r>
       <r>    -6.3277    23.6177    45.2865 </r>
       <r>    -6.2335    18.7825    47.0556 </r>
       <r>    -6.1393    46.5052    51.4358 </r>
       <r>    -6.0451    21.0179    53.4155 </r>
       <r>    -5.9510    45.9747    57.7458 </r>
       <r>    -5.8568    21.1829    59.7410 </r>
       <r>    -5.7626    20.6460    61.6856 </r>
       <r>    -5.6684    59.6975    67.3084 </r>
       <r>    -5.5742    87.0142    75.5042 </r>
       <r>    -5.4800    74.0892    82.4825 </r>
       <r>    -5.3858    60.4046    88.1720 </r>
       <r>    -5.2916    95.2720    97.1455 </r>
       <r>    -5.1974    89.3494   105.5612 </r>
       <r>    -5.1033   108.0285   115.7363 </r>
       <r>    -5.0091   119.2240   126.9659 </r>
       <r>    -4.9149   145.3033   140.6518 </r>
       <r>    -4.8207   127.6609   152.6760 </r>
       <r>    -4.7265   126.6108   164.6013 </r>
       <r>    -4.6323   166.4871   180.2825 </r>
       <r>    -4.5381   204.3649   199.5314 </r>
       <r>    -4.4439   241.2474   222.2542 </r>
       <r>    -4.3497   284.5972   249.0601 </r>
       <r>    -4.2556   253.8204   272.9671 </r>
       <r>    -4.1614   219.9152   293.6806 </r>
       <r>    -4.0672   206.5978   313.1398 </r>
       <r>    -3.9730   219.7166   333.8346 </r>
       <r>    -3.8788   272.4455   359.4959 </r>
       <r>    -3.7846   278.4744   385.7251 </r>
       <r>    -3.6904   321.8531   416.0400 </r>
       <r>    -3.5962   318.3826   446.0281 </r>
       <r>    -3.5021   325.2519   476.6631 </r>
       <r>    -3.4079   392.9637   513.6759 </r>
       <r>    -3.3137   477.8509   558.6841 </r>
       <r>    -3.2195   505.8243   606.3270 </r>
       <r>    -3.1253   437.9239   647.5745 </r>
       <r>    -3.0311   452.1625   690.1632 </r>
       <r>    -2.9369   326.0437   720.8728 </r>
       <r>    -2.8427   363.0257   755.0657 </r>
       <r>    -2.7485   346.9965   787.7489 </r>
       <r>    -2.6544   410.1047   826.3761 </r>
       <r>    -2.5602   409.3771   864.9349 </r>
       <r>    -2.4660   389.1613   901.5895 </r>
       <r>    -2.3718   429.4688   942.0406 </r>
       <r>    -2.2776   419.7976   981.5808 </r>
       <r>    -2.1834   440.7566  1023.0951 </r>
       <r>    -2.0892   530.4989  1073.0622 </r>
       <r>    -1.9950   616.0364  1131.0858 </r>
       <r>    -1.9008   434.0486  1171.9683 </r>
       <r>    -1.8067   161.7050  1187.1991 </r>
       <r>    -1.7125    69.3153  1193.7279 </r>
       <r>    -1.6183    52.3052  1198.6544 </r>
       <r>    -1.5241    58.5708  1204.1711 </r>
       <r>    -1.4299    59.4382  1209.7695 </r>
       <r>    -1.3357    89.5114  1218.2005 </r>
       <r>    -1.2415    59.4415  1223.7992 </r>
       <r>    -1.1473    35.8360  1227.1746 </r>
       <r>    -1.0531    11.6028  1228.2674 </r>
       <r>    -0.9590    47.8681  1232.7761 </r>
       <r>    -0.8648    37.9912  1236.3544 </r>
       <r>    -0.7706    43.9491  1240.4939 </r>
       <r>    -0.6764    47.1636  1244.9362 </r>
       <r>    -0.5822    57.9513  1250.3946 </r>
       <r>    -0.4880    20.2324  1252.3002 </r>
       <r>    -0.3938    34.9237  1255.5896 </r>
       <r>    -0.2996    37.5579  1259.1272 </r>
       <r>    -0.2054    41.2416  1263.0117 </r>
       <r>    -0.1113    23.6194  1265.2364 </r>
       <r>    -0.0171    35.1203  1268.5443 </r>
       <r>     0.0771    48.7026  1273.1315 </r>
       <r>     0.1713    42.3606  1277.1214 </r>
       <r>     0.2655    12.9802  1278.3440 </r>
       <r>     0.3597    25.6063  1280.7558 </r>
       <r>     0.4539    43.4162  1284.8452 </r>
       <r>     0.5481    34.0149  1288.0490 </r>
       <r>     0.6423    28.5638  1290.7394 </r>
       <r>     0.7364    54.2232  1295.8466 </r>
       <r>     0.8306    35.3738  1299.1784 </r>
       <r>     0.9248    31.3815  1302.1342 </r>
       <r>     1.0190    29.1655  1304.8813 </r>
       <r>     1.1132    29.0867  1307.6209 </r>
       <r>     1.2074    47.1623  1312.0631 </r>
       <r>     1.3016    19.4745  1313.8973 </r>
       <r>     1.3958    20.3415  1315.8133 </r>
       <r>     1.4900    37.1774  1319.3150 </r>
       <r>     1.5841    32.1726  1322.3453 </r>
       <r>     1.6783    27.8525  1324.9687 </r>
       <r>     1.7725    20.3840  1326.8886 </r>
       <r>     1.8667    41.5354  1330.8008 </r>
       <r>     1.9609    37.1921  1334.3038 </r>
       <r>     2.0551    39.2951  1338.0050 </r>
       <r>     2.1493    24.7288  1340.3342 </r>
       <r>     2.2435    37.8567  1343.8998 </r>
       <r>     2.3377    24.6177  1346.2186 </r>
       <r>     2.4318    22.4696  1348.3349 </r>
       <r>     2.5260    14.7296  1349.7223 </r>
       <r>     2.6202    11.8091  1350.8346 </r>
       <r>     2.7144    19.7084  1352.6909 </r>
       <r>     2.8086    32.6133  1355.7627 </r>
       <r>     2.9028    28.0699  1358.4066 </r>
       <r>     2.9970    27.1201  1360.9610 </r>
       <r>     3.0912    19.4421  1362.7922 </r>
       <r>     3.1853    23.4161  1364.9977 </r>
       <r>     3.2795    21.0801  1366.9832 </r>
       <r>     3.3737     8.7267  1367.8052 </r>
       <r>     3.4679    30.6348  1370.6906 </r>
       <r>     3.5621    31.9512  1373.7001 </r>
       <r>     3.6563    27.8346  1376.3218 </r>
       <r>     3.7505     7.1028  1376.9908 </r>
       <r>     3.8447    21.7065  1379.0353 </r>
       <r>     3.9389    44.4408  1383.2211 </r>
       <r>     4.0330    32.5245  1386.2845 </r>
       <r>     4.1272    42.1370  1390.2534 </r>
       <r>     4.2214    50.8861  1395.0463 </r>
       <r>     4.3156    35.2725  1398.3686 </r>
       <r>     4.4098    18.4317  1400.1046 </r>
       <r>     4.5040    23.0837  1402.2788 </r>
       <r>     4.5982    31.7254  1405.2670 </r>
       <r>     4.6924    37.9073  1408.8374 </r>
       <r>     4.7866    40.9437  1412.6939 </r>
       <r>     4.8807    47.7752  1417.1938 </r>
       <r>     4.9749    38.1920  1420.7910 </r>
       <r>     5.0691    40.1592  1424.5736 </r>
       <r>     5.1633    37.1148  1428.0694 </r>
       <r>     5.2575    28.7324  1430.7756 </r>
       <r>     5.3517    59.5236  1436.3821 </r>
       <r>     5.4459    37.2361  1439.8893 </r>
       <r>     5.5401    54.2365  1444.9978 </r>
       <r>     5.6343    33.9154  1448.1922 </r>
       <r>     5.7284    34.1468  1451.4085 </r>
       <r>     5.8226    33.8314  1454.5950 </r>
       <r>     5.9168    33.0857  1457.7113 </r>
       <r>     6.0110    61.5723  1463.5107 </r>
       <r>     6.1052    54.3567  1468.6305 </r>
       <r>     6.1994    44.5245  1472.8242 </r>
       <r>     6.2936    40.3919  1476.6287 </r>
       <r>     6.3878    36.4605  1480.0629 </r>
       <r>     6.4820    51.2298  1484.8881 </r>
       <r>     6.5761    42.7820  1488.9177 </r>
       <r>     6.6703    35.3445  1492.2468 </r>
       <r>     6.7645    37.3787  1495.7674 </r>
       <r>     6.8587    59.2170  1501.3450 </r>
       <r>     6.9529    48.9585  1505.9563 </r>
       <r>     7.0471    36.5628  1509.4001 </r>
       <r>     7.1413    26.6789  1511.9130 </r>
       <r>     7.2355     0.9238  1512.0000 </r>
       <r>     7.3297     0.0001  1512.0000 </r>
       <r>     7.4238     0.0000  1512.0000 </r>
       <r>     7.5180     0.0000  1512.0000 </r>
       <r>     7.6122     0.0000  1512.0000 </r>
       <r>     7.7064     0.0000  1512.0000 </r>
       <r>     7.8006     0.0000  1512.0000 </r>
       <r>     7.8948     0.0000  1512.0000 </r>
       <r>     7.9890     0.0000  1512.0000 </r>
       <r>     8.0832     0.0000  1512.0000 </r>
       <r>     8.1774     0.0000  1512.0000 </r>
       <r>     8.2715     0.0000  1512.0000 </r>
       <r>     8.3657     0.0000  1512.0000 </r>
      </set>
     </set>
    </array>
   </total>
  </dos>
 </calculation>
 <structure name="finalpos" >
  <crystal>
   <varray name="basis" >
    <v>      10.28518105       0.00000000       0.00000000 </v>
    <v>       5.14259052       8.90722807       0.00000000 </v>
    <v>       0.00000000       0.00000000      27.79016876 </v>
   </varray>
   <i name="volume">   2545.92553775 </i>
   <varray name="rec_basis" >
    <v>       0.09722726      -0.05613419       0.00000000 </v>
    <v>       0.00000000       0.11226837       0.00000000 </v>
    <v>       0.00000000       0.00000000       0.03598395 </v>
   </varray>
  </crystal>
  <varray name="positions" >
   <v>       0.00000000       0.00000000       0.22663990 </v>
   <v>       0.00000000       0.50000000       0.22663990 </v>
   <v>       0.50000000       0.00000000       0.22663990 </v>
   <v>       0.50000000       0.50000000       0.22663990 </v>
   <v>       0.00000000       0.25000000       0.22663990 </v>
   <v>       0.00000000       0.75000000       0.22663990 </v>
   <v>       0.50000000       0.25000000       0.22663990 </v>
   <v>       0.50000000       0.75000000       0.22663990 </v>
   <v>       0.25000000       0.00000000       0.22663990 </v>
   <v>       0.25000000       0.50000000       0.22663990 </v>
   <v>       0.75000000       0.00000000       0.22663990 </v>
   <v>       0.75000000       0.50000000       0.22663990 </v>
   <v>       0.25000000       0.25000000       0.22663990 </v>
   <v>       0.25000000       0.75000000       0.22663990 </v>
   <v>       0.75000000       0.25000000       0.22663990 </v>
   <v>       0.75000000       0.75000000       0.22663990 </v>
   <v>       0.16666666       0.16666666       0.30218653 </v>
   <v>       0.16666666       0.66666666       0.30218653 </v>
   <v>       0.66666666       0.16666666       0.30218653 </v>
   <v>       0.66666666       0.66666666       0.30218653 </v>
   <v>       0.16666666       0.41666666       0.30218653 </v>
   <v>       0.16666666       0.91666666       0.30218653 </v>
   <v>       0.66666666       0.41666666       0.30218653 </v>
   <v>       0.66666666       0.91666666       0.30218653 </v>
   <v>       0.41666666       0.16666666       0.30218653 </v>
   <v>       0.41666666       0.66666666       0.30218653 </v>
   <v>       0.91666666       0.16666666       0.30218653 </v>
   <v>       0.91666666       0.66666666       0.30218653 </v>
   <v>       0.41666666       0.41666666       0.30218653 </v>
   <v>       0.41666666       0.91666666       0.30218653 </v>
   <v>       0.91666666       0.41666666       0.30218653 </v>
   <v>       0.91666666       0.91666666       0.30218653 </v>
   <v>       0.08333333       0.08333333       0.37716320 </v>
   <v>       0.08333333       0.58333333       0.37716320 </v>
   <v>       0.58333333       0.08333333       0.37716320 </v>
   <v>       0.58333333       0.58333333       0.37716320 </v>
   <v>       0.08351614       0.33324190       0.37729758 </v>
   <v>       0.08351614       0.83324190       0.37729758 </v>
   <v>       0.58351614       0.33324190       0.37729758 </v>
   <v>       0.58351614       0.83324190       0.37729758 </v>
   <v>       0.33324190       0.08351614       0.37729758 </v>
   <v>       0.33324190       0.58351614       0.37729758 </v>
   <v>       0.83324190       0.08351614       0.37729758 </v>
   <v>       0.83324190       0.58351614       0.37729758 </v>
   <v>       0.33324190       0.33324190       0.37729758 </v>
   <v>       0.33324190       0.83324190       0.37729758 </v>
   <v>       0.83324190       0.33324190       0.37729758 </v>
   <v>       0.83324190       0.83324190       0.37729758 </v>
   <v>       0.00012997       0.00012997       0.45242342 </v>
   <v>       0.00012997       0.50012997       0.45242342 </v>
   <v>       0.50012997       0.00012997       0.45242342 </v>
   <v>       0.50012997       0.50012997       0.45242342 </v>
   <v>       0.00012997       0.24974005       0.45242342 </v>
   <v>       0.00012997       0.74974005       0.45242342 </v>
   <v>       0.50012997       0.24974005       0.45242342 </v>
   <v>       0.50012997       0.74974005       0.45242342 </v>
   <v>       0.24974005       0.00012997       0.45242342 </v>
   <v>       0.24974005       0.50012997       0.45242342 </v>
   <v>       0.74974005       0.00012997       0.45242342 </v>
   <v>       0.74974005       0.50012997       0.45242342 </v>
   <v>       0.25000000       0.25000000       0.45288750 </v>
   <v>       0.25000000       0.75000000       0.45288750 </v>
   <v>       0.75000000       0.25000000       0.45288750 </v>
   <v>       0.75000000       0.75000000       0.45288750 </v>
   <v>       0.16523098       0.16660598       0.52763018 </v>
   <v>       0.16660598       0.66660598       0.52813907 </v>
   <v>       0.66660598       0.16660598       0.52813907 </v>
   <v>       0.66660598       0.66660598       0.52813907 </v>
   <v>       0.16660598       0.41678801       0.52813907 </v>
   <v>       0.16660598       0.91678801       0.52813907 </v>
   <v>       0.66660598       0.41678801       0.52813907 </v>
   <v>       0.66660598       0.91678801       0.52813907 </v>
   <v>       0.41678801       0.16660598       0.52813907 </v>
   <v>       0.41678801       0.66660598       0.52813907 </v>
   <v>       0.91678801       0.16660598       0.52813907 </v>
   <v>       0.91678801       0.66660598       0.52813907 </v>
   <v>       0.41666666       0.41666666       0.52741939 </v>
   <v>       0.41666666       0.91666666       0.52741939 </v>
   <v>       0.91666666       0.41666666       0.52741939 </v>
   <v>       0.91666666       0.91666666       0.52741939 </v>
   <v>       0.08333333       0.08333333       0.60253339 </v>
   <v>       0.08333333       0.58333333       0.60253339 </v>
   <v>       0.58333333       0.08333333       0.60253339 </v>
   <v>       0.58333333       0.58333333       0.60253339 </v>
   <v>       0.08130935       0.33434529       0.60320464 </v>
   <v>       0.08130935       0.83434529       0.60320464 </v>
   <v>       0.58130935       0.33434529       0.60320464 </v>
   <v>       0.58130935       0.83434529       0.60320464 </v>
   <v>       0.33434529       0.08130935       0.60320464 </v>
   <v>       0.33434529       0.58130935       0.60320464 </v>
   <v>       0.83434529       0.08130935       0.60320464 </v>
   <v>       0.83434529       0.58130935       0.60320464 </v>
   <v>       0.33434529       0.33434529       0.60320464 </v>
   <v>       0.33434529       0.83434529       0.60320464 </v>
   <v>       0.83434529       0.33434529       0.60320464 </v>
   <v>       0.83434529       0.83434529       0.60320464 </v>
   <v>       0.49714648       0.49714648       0.68057248 </v>
   <v>       0.49714648       0.99714648       0.68057248 </v>
   <v>       0.99714648       0.49714648       0.68057248 </v>
   <v>       0.99714648       0.99714648       0.68057248 </v>
   <v>       0.49714648       0.25570704       0.68057248 </v>
   <v>       0.49714648       0.75570704       0.68057248 </v>
   <v>       0.99714648       0.25570704       0.68057248 </v>
   <v>       0.99714648       0.75570704       0.68057248 </v>
   <v>       0.25570704       0.49714648       0.68057248 </v>
   <v>       0.25570704       0.99714648       0.68057248 </v>
   <v>       0.75570704       0.49714648       0.68057248 </v>
   <v>       0.75570704       0.99714648       0.68057248 </v>
   <v>       0.25000000       0.25000000       0.67480871 </v>
   <v>       0.25000000       0.75000000       0.67480871 </v>
   <v>       0.75000000       0.25000000       0.67480871 </v>
   <v>       0.75000000       0.75000000       0.67480871 </v>
   <v>       0.08333333       0.08333333       0.72043888 </v>
   <v>       0.08333333       0.58333333       0.72043888 </v>
   <v>       0.58333333       0.08333333       0.72043888 </v>
   <v>       0.58333333       0.58333333       0.72043888 </v>
  </varray>
 </structure>
</modeling>
