<?xml version="1.0" encoding="ISO-8859-1"?>
<modeling>
 <generator>
  <i name="program" type="string">vasp </i>
  <i name="version" type="string">5.4.4.18Apr17-6-g9f103f2a35  </i>
  <i name="subversion" type="string">(build Feb 09 2021 16:27:36) complex            parallel </i>
  <i name="platform" type="string">IFC15_impi </i>
  <i name="date" type="string">2021 04 29 </i>
  <i name="time" type="string">03:25:15 </i>
 </generator>
 <incar>
  <i type="int" name="ISTART">     0</i>
  <i type="string" name="PREC">a</i>
  <i type="logical" name="ADDGRID"> T  </i>
  <i type="int" name="NELM">   300</i>
  <i type="int" name="NELMIN">     5</i>
  <i type="int" name="IBRION">    -1</i>
  <i name="EDIFF">      0.00000100</i>
  <i name="ENCUT">    500.00000000</i>
  <i type="logical" name="LREAL"> F  </i>
  <i type="int" name="ISMEAR">     0</i>
  <i name="SIGMA">      0.05000000</i>
  <i type="logical" name="LWAVE"> F  </i>
  <i type="logical" name="LCHARG"> F  </i>
  <v type="int" name="KPOINT_BSE">    -1     0     0     0</v>
  <i type="int" name="NELM">   300</i>
 </incar>
 <structure name="primitive_cell" >
  <crystal>
   <varray name="basis" >
    <v>      10.28518105       0.00000000       0.00000000 </v>
    <v>       5.14259052       8.90722807       0.00000000 </v>
    <v>       0.00000000       0.00000000      27.79016876 </v>
   </varray>
   <i name="volume">   2545.92553775 </i>
   <varray name="rec_basis" >
    <v>       0.09722726      -0.05613419       0.00000000 </v>
    <v>       0.00000000       0.11226837       0.00000000 </v>
    <v>       0.00000000       0.00000000       0.03598395 </v>
   </varray>
  </crystal>
  <varray name="positions" >
   <v>       0.00000000       0.00000000       0.22663990 </v>
   <v>       0.16666666      -0.08333334       0.30218653 </v>
   <v>      -0.08333334       0.16666666       0.30218653 </v>
   <v>       0.25000000       0.00000000       0.22663990 </v>
   <v>       0.00000000      -0.25000000       0.22663990 </v>
   <v>       0.25000000      -0.25000000       0.22663990 </v>
   <v>      -0.25000000       0.25000000       0.22663990 </v>
   <v>       0.00000000       0.25000000       0.22663990 </v>
   <v>      -0.25000000       0.00000000       0.22663990 </v>
   <v>      -0.08333334      -0.08333334       0.30218653 </v>
   <v>       0.16666666       0.16666666       0.30218653 </v>
   <v>       0.16666666      -0.33333334       0.30218653 </v>
   <v>      -0.33333334       0.16666666       0.30218653 </v>
   <v>       0.08333333       0.08333333       0.37716320 </v>
   <v>       0.08351614      -0.16675810       0.37729758 </v>
   <v>      -0.16675810       0.08351614       0.37729758 </v>
   <v>       0.41666666      -0.08333334       0.30218653 </v>
   <v>      -0.08333334       0.41666666       0.30218653 </v>
   <v>      -0.33333334       0.41666666       0.30218653 </v>
   <v>       0.41666666      -0.33333334       0.30218653 </v>
   <v>      -0.50000000       0.25000000       0.22663990 </v>
   <v>       0.25000000       0.25000000       0.22663990 </v>
   <v>       0.25000000      -0.50000000       0.22663990 </v>
   <v>      -0.25000000      -0.50000000       0.22663990 </v>
   <v>      -0.25000000      -0.25000000       0.22663990 </v>
   <v>      -0.50000000      -0.25000000       0.22663990 </v>
   <v>      -0.08333334      -0.33333334       0.30218653 </v>
   <v>      -0.33333334      -0.08333334       0.30218653 </v>
   <v>       0.33324190      -0.16675810       0.37729758 </v>
   <v>      -0.16675810       0.33324190       0.37729758 </v>
   <v>      -0.16675810      -0.16675810       0.37729758 </v>
   <v>       0.00000000      -0.50000000       0.22663990 </v>
   <v>      -0.50000000      -0.50000000       0.22663990 </v>
   <v>      -0.50000000       0.00000000       0.22663990 </v>
   <v>      -0.41666667       0.08333333       0.37716320 </v>
   <v>       0.08333333      -0.41666667       0.37716320 </v>
   <v>       0.33324190      -0.41648386       0.37729758 </v>
   <v>      -0.41648386       0.33324190       0.37729758 </v>
   <v>       0.33324190       0.08351614       0.37729758 </v>
   <v>       0.08351614       0.33324190       0.37729758 </v>
   <v>       0.16666666       0.41666666       0.30218653 </v>
   <v>       0.41666666       0.16666666       0.30218653 </v>
   <v>       0.41666666       0.41666666       0.30218653 </v>
   <v>       0.00012997       0.00012997       0.45242342 </v>
   <v>      -0.33333334      -0.33333334       0.30218653 </v>
   <v>       0.00012997       0.24974005       0.45242342 </v>
   <v>       0.24974005       0.00012997       0.45242342 </v>
   <v>      -0.25025995       0.00012997       0.45242342 </v>
   <v>       0.00012997      -0.25025995       0.45242342 </v>
   <v>       0.25000000      -0.25000000       0.45288750 </v>
   <v>      -0.25000000       0.25000000       0.45288750 </v>
   <v>      -0.41666667      -0.41666667       0.37716320 </v>
   <v>      -0.41648386      -0.16675810       0.37729758 </v>
   <v>      -0.16675810      -0.41648386       0.37729758 </v>
   <v>       0.33324190       0.33324190       0.37729758 </v>
   <v>       0.24974005      -0.49987003       0.45242342 </v>
   <v>      -0.49987003       0.24974005       0.45242342 </v>
   <v>      -0.49987003      -0.25025995       0.45242342 </v>
   <v>      -0.25025995      -0.49987003       0.45242342 </v>
   <v>       0.25000000       0.25000000       0.45288750 </v>
   <v>      -0.25000000      -0.25000000       0.45288750 </v>
   <v>       0.00012997      -0.49987003       0.45242342 </v>
   <v>      -0.49987003       0.00012997       0.45242342 </v>
   <v>      -0.49987003      -0.49987003       0.45242342 </v>
   <v>      -0.08333334      -0.08333334      -0.47258061 </v>
   <v>      -0.08321199       0.16660598      -0.47186093 </v>
   <v>       0.16660598      -0.08321199      -0.47186093 </v>
   <v>       0.16660598       0.16660598      -0.47186093 </v>
   <v>      -0.33339402       0.16660598      -0.47186093 </v>
   <v>       0.16660598      -0.33339402      -0.47186093 </v>
   <v>       0.41666666      -0.08333334      -0.47258061 </v>
   <v>      -0.08333334       0.41666666      -0.47258061 </v>
   <v>      -0.33339402      -0.08321199      -0.47186093 </v>
   <v>      -0.08321199      -0.33339402      -0.47186093 </v>
   <v>      -0.33339402       0.41678801      -0.47186093 </v>
   <v>       0.41678801      -0.33339402      -0.47186093 </v>
   <v>       0.41666666       0.41666666      -0.47258061 </v>
   <v>       0.16660598       0.41678801      -0.47186093 </v>
   <v>       0.41678801       0.16660598      -0.47186093 </v>
   <v>      -0.33339402      -0.33339402      -0.47186093 </v>
   <v>       0.08333333       0.08333333      -0.39746661 </v>
   <v>      -0.16565471       0.08130935      -0.39679536 </v>
   <v>       0.08130935      -0.16565471      -0.39679536 </v>
   <v>      -0.16565471      -0.16565471      -0.39679536 </v>
   <v>      -0.16565471       0.33434529      -0.39679536 </v>
   <v>       0.33434529      -0.16565471      -0.39679536 </v>
   <v>      -0.41666667       0.08333333      -0.39746661 </v>
   <v>       0.08333333      -0.41666667      -0.39746661 </v>
   <v>       0.08130935       0.33434529      -0.39679536 </v>
   <v>       0.33434529       0.08130935      -0.39679536 </v>
   <v>       0.33434529      -0.41869065      -0.39679536 </v>
   <v>      -0.41869065       0.33434529      -0.39679536 </v>
   <v>      -0.41666667      -0.41666667      -0.39746661 </v>
   <v>      -0.41869065      -0.16565471      -0.39679536 </v>
   <v>      -0.16565471      -0.41869065      -0.39679536 </v>
   <v>       0.33434529       0.33434529      -0.39679536 </v>
   <v>      -0.00285352      -0.00285352      -0.31942752 </v>
   <v>       0.25000000      -0.25000000      -0.32519129 </v>
   <v>      -0.25000000       0.25000000      -0.32519129 </v>
   <v>      -0.24429296      -0.00285352      -0.31942752 </v>
   <v>      -0.00285352      -0.24429296      -0.31942752 </v>
   <v>      -0.00285352       0.25570704      -0.31942752 </v>
   <v>       0.25570704      -0.00285352      -0.31942752 </v>
   <v>       0.24862500       0.25000000      -0.32570018 </v>
   <v>      -0.25000000      -0.25000000      -0.32519129 </v>
   <v>       0.49714648      -0.24429296      -0.31942752 </v>
   <v>      -0.24429296       0.49714648      -0.31942752 </v>
   <v>       0.25570704       0.49714648      -0.31942752 </v>
   <v>       0.49714648       0.25570704      -0.31942752 </v>
   <v>      -0.00285352       0.49714648      -0.31942752 </v>
   <v>       0.49714648      -0.00285352      -0.31942752 </v>
   <v>       0.49714648       0.49714648      -0.31942752 </v>
   <v>       0.08333333       0.08333333      -0.27956112 </v>
   <v>      -0.41666667       0.08333333      -0.27956112 </v>
   <v>       0.08333333      -0.41666667      -0.27956112 </v>
   <v>      -0.41666667      -0.41666667      -0.27956112 </v>
  </varray>
 </structure>
 <varray name="primitive_index" >
  <v type="int" >        1 </v>
  <v type="int" >       22 </v>
  <v type="int" >       27 </v>
  <v type="int" >        9 </v>
  <v type="int" >        6 </v>
  <v type="int" >       14 </v>
  <v type="int" >       15 </v>
  <v type="int" >        5 </v>
  <v type="int" >       11 </v>
  <v type="int" >       32 </v>
  <v type="int" >       17 </v>
  <v type="int" >       18 </v>
  <v type="int" >       19 </v>
  <v type="int" >       33 </v>
  <v type="int" >       38 </v>
  <v type="int" >       43 </v>
  <v type="int" >       30 </v>
  <v type="int" >       31 </v>
  <v type="int" >       23 </v>
  <v type="int" >       26 </v>
  <v type="int" >        7 </v>
  <v type="int" >       13 </v>
  <v type="int" >       10 </v>
  <v type="int" >       12 </v>
  <v type="int" >       16 </v>
  <v type="int" >        8 </v>
  <v type="int" >       28 </v>
  <v type="int" >       24 </v>
  <v type="int" >       46 </v>
  <v type="int" >       47 </v>
  <v type="int" >       48 </v>
  <v type="int" >        2 </v>
  <v type="int" >        4 </v>
  <v type="int" >        3 </v>
  <v type="int" >       35 </v>
  <v type="int" >       34 </v>
  <v type="int" >       42 </v>
  <v type="int" >       39 </v>
  <v type="int" >       41 </v>
  <v type="int" >       37 </v>
  <v type="int" >       21 </v>
  <v type="int" >       25 </v>
  <v type="int" >       29 </v>
  <v type="int" >       49 </v>
  <v type="int" >       20 </v>
  <v type="int" >       53 </v>
  <v type="int" >       57 </v>
  <v type="int" >       59 </v>
  <v type="int" >       54 </v>
  <v type="int" >       62 </v>
  <v type="int" >       63 </v>
  <v type="int" >       36 </v>
  <v type="int" >       40 </v>
  <v type="int" >       44 </v>
  <v type="int" >       45 </v>
  <v type="int" >       58 </v>
  <v type="int" >       55 </v>
  <v type="int" >       56 </v>
  <v type="int" >       60 </v>
  <v type="int" >       61 </v>
  <v type="int" >       64 </v>
  <v type="int" >       50 </v>
  <v type="int" >       51 </v>
  <v type="int" >       52 </v>
  <v type="int" >       80 </v>
  <v type="int" >       75 </v>
  <v type="int" >       70 </v>
  <v type="int" >       65 </v>
  <v type="int" >       67 </v>
  <v type="int" >       66 </v>
  <v type="int" >       78 </v>
  <v type="int" >       79 </v>
  <v type="int" >       72 </v>
  <v type="int" >       76 </v>
  <v type="int" >       71 </v>
  <v type="int" >       74 </v>
  <v type="int" >       77 </v>
  <v type="int" >       69 </v>
  <v type="int" >       73 </v>
  <v type="int" >       68 </v>
  <v type="int" >       81 </v>
  <v type="int" >       91 </v>
  <v type="int" >       86 </v>
  <v type="int" >       96 </v>
  <v type="int" >       95 </v>
  <v type="int" >       94 </v>
  <v type="int" >       83 </v>
  <v type="int" >       82 </v>
  <v type="int" >       85 </v>
  <v type="int" >       89 </v>
  <v type="int" >       90 </v>
  <v type="int" >       87 </v>
  <v type="int" >       84 </v>
  <v type="int" >       88 </v>
  <v type="int" >       92 </v>
  <v type="int" >       93 </v>
  <v type="int" >      100 </v>
  <v type="int" >      110 </v>
  <v type="int" >      111 </v>
  <v type="int" >      108 </v>
  <v type="int" >      104 </v>
  <v type="int" >      103 </v>
  <v type="int" >      106 </v>
  <v type="int" >      109 </v>
  <v type="int" >      112 </v>
  <v type="int" >      102 </v>
  <v type="int" >      107 </v>
  <v type="int" >      105 </v>
  <v type="int" >      101 </v>
  <v type="int" >       99 </v>
  <v type="int" >       98 </v>
  <v type="int" >       97 </v>
  <v type="int" >      113 </v>
  <v type="int" >      115 </v>
  <v type="int" >      114 </v>
  <v type="int" >      116 </v>
 </varray>
 <kpoints>
  <generation param="Gamma">
   <v type="int" name="divisions">       4        4        1 </v>
   <v name="usershift">      0.00000000       0.00000000       0.00000000 </v>
   <v name="genvec1">      0.25000000      -0.00000000       0.00000000 </v>
   <v name="genvec2">      0.00000000       0.25000000       0.00000000 </v>
   <v name="genvec3">      0.00000000       0.00000000       1.00000000 </v>
   <v name="shift">      0.00000000       0.00000000       0.00000000 </v>
  </generation>
  <varray name="kpointlist" >
   <v>       0.00000000       0.00000000       0.00000000 </v>
   <v>       0.25000000      -0.00000000       0.00000000 </v>
   <v>       0.50000000      -0.00000000       0.00000000 </v>
   <v>       0.00000000       0.25000000       0.00000000 </v>
   <v>       0.25000000       0.25000000       0.00000000 </v>
   <v>       0.50000000       0.25000000       0.00000000 </v>
   <v>      -0.25000000       0.25000000       0.00000000 </v>
   <v>       0.00000000       0.50000000       0.00000000 </v>
   <v>       0.25000000       0.50000000       0.00000000 </v>
   <v>       0.50000000       0.50000000       0.00000000 </v>
  </varray>
  <varray name="weights" >
   <v>       0.06250000 </v>
   <v>       0.12500000 </v>
   <v>       0.06250000 </v>
   <v>       0.12500000 </v>
   <v>       0.12500000 </v>
   <v>       0.12500000 </v>
   <v>       0.12500000 </v>
   <v>       0.06250000 </v>
   <v>       0.12500000 </v>
   <v>       0.06250000 </v>
  </varray>
 </kpoints>
 <parameters>
  <separator name="general" >
   <i type="string" name="SYSTEM">unknown system</i>
   <i type="logical" name="LCOMPAT"> F  </i>
  </separator>
  <separator name="electronic" >
   <i type="string" name="PREC">a</i>
   <i name="ENMAX">    500.00000000</i>
   <i name="ENAUG">    605.39200000</i>
   <i name="EDIFF">      0.00000100</i>
   <i type="int" name="IALGO">    38</i>
   <i type="int" name="IWAVPR">    10</i>
   <i type="int" name="NBANDS">   756</i>
   <i name="NELECT">   1256.00000000</i>
   <i type="int" name="TURBO">     0</i>
   <i type="int" name="IRESTART">     0</i>
   <i type="int" name="NREBOOT">     0</i>
   <i type="int" name="NMIN">     0</i>
   <i name="EREF">      0.00000000</i>
   <separator name="electronic smearing" >
    <i type="int" name="ISMEAR">     0</i>
    <i name="SIGMA">      0.05000000</i>
    <i name="KSPACING">      0.50000000</i>
    <i type="logical" name="KGAMMA"> T  </i>
   </separator>
   <separator name="electronic projectors" >
    <i type="logical" name="LREAL"> F  </i>
    <v name="ROPT">      0.00000000      0.00000000</v>
    <i type="int" name="LMAXPAW">  -100</i>
    <i type="int" name="LMAXMIX">     2</i>
    <i type="logical" name="NLSPLINE"> F  </i>
   </separator>
   <separator name="electronic startup" >
    <i type="int" name="ISTART">     0</i>
    <i type="int" name="ICHARG">     2</i>
    <i type="int" name="INIWAV">     1</i>
   </separator>
   <separator name="electronic spin" >
    <i type="int" name="ISPIN">     1</i>
    <i type="logical" name="LNONCOLLINEAR"> F  </i>
    <v name="MAGMOM">      1.00000000      1.00000000      1.00000000      1.00000000      1.00000000      1.00000000      1.00000000      1.00000000      1.00000000      1.00000000      1.00000000      1.00000000      1.00000000      1.00000000      1.00000000      1.00000000      1.00000000      1.00000000      1.00000000      1.00000000
      1.00000000      1.00000000      1.00000000      1.00000000      1.00000000      1.00000000      1.00000000      1.00000000      1.00000000      1.00000000      1.00000000      1.00000000      1.00000000      1.00000000      1.00000000      1.00000000      1.00000000      1.00000000      1.00000000      1.00000000
      1.00000000      1.00000000      1.00000000      1.00000000      1.00000000      1.00000000      1.00000000      1.00000000      1.00000000      1.00000000      1.00000000      1.00000000      1.00000000      1.00000000      1.00000000      1.00000000      1.00000000      1.00000000      1.00000000      1.00000000
      1.00000000      1.00000000      1.00000000      1.00000000      1.00000000      1.00000000      1.00000000      1.00000000      1.00000000      1.00000000      1.00000000      1.00000000      1.00000000      1.00000000      1.00000000      1.00000000      1.00000000      1.00000000      1.00000000      1.00000000
      1.00000000      1.00000000      1.00000000      1.00000000      1.00000000      1.00000000      1.00000000      1.00000000      1.00000000      1.00000000      1.00000000      1.00000000      1.00000000      1.00000000      1.00000000      1.00000000      1.00000000      1.00000000      1.00000000      1.00000000
      1.00000000      1.00000000      1.00000000      1.00000000      1.00000000      1.00000000      1.00000000      1.00000000      1.00000000      1.00000000      1.00000000      1.00000000      1.00000000      1.00000000      1.00000000      1.00000000</v>
    <i name="NUPDOWN">     -1.00000000</i>
    <i type="logical" name="LSORBIT"> F  </i>
    <v name="SAXIS">      0.00000000      0.00000000      1.00000000</v>
    <i type="logical" name="LSPIRAL"> F  </i>
    <v name="QSPIRAL">      0.00000000      0.00000000      0.00000000</v>
    <i type="logical" name="LZEROZ"> F  </i>
   </separator>
   <separator name="electronic exchange-correlation" >
    <i type="logical" name="LASPH"> F  </i>
    <i type="logical" name="LMETAGGA"> F  </i>
   </separator>
   <separator name="electronic convergence" >
    <i type="int" name="NELM">   300</i>
    <i type="int" name="NELMDL">    -5</i>
    <i type="int" name="NELMIN">     5</i>
    <i name="ENINI">    500.00000000</i>
    <separator name="electronic convergence detail" >
     <i type="logical" name="LDIAG"> T  </i>
     <i type="logical" name="LSUBROT"> F  </i>
     <i name="WEIMIN">      0.00000000</i>
     <i name="EBREAK">      0.00000000</i>
     <i name="DEPER">      0.30000000</i>
     <i type="int" name="NRMM">     4</i>
     <i name="TIME">      0.40000000</i>
    </separator>
   </separator>
   <separator name="electronic mixer" >
    <i name="AMIX">      0.40000000</i>
    <i name="BMIX">      1.00000000</i>
    <i name="AMIN">      0.10000000</i>
    <i name="AMIX_MAG">      1.60000000</i>
    <i name="BMIX_MAG">      1.00000000</i>
    <separator name="electronic mixer details" >
     <i type="int" name="IMIX">     4</i>
     <i type="logical" name="MIXFIRST"> F  </i>
     <i type="int" name="MAXMIX">   -45</i>
     <i name="WC">    100.00000000</i>
     <i type="int" name="INIMIX">     1</i>
     <i type="int" name="MIXPRE">     1</i>
     <i type="int" name="MREMOVE">     5</i>
    </separator>
   </separator>
   <separator name="electronic dipolcorrection" >
    <i type="logical" name="LDIPOL"> F  </i>
    <i type="logical" name="LMONO"> F  </i>
    <i type="int" name="IDIPOL">     0</i>
    <i name="EPSILON">      1.00000000</i>
    <v name="DIPOL">   -100.00000000   -100.00000000   -100.00000000</v>
    <i name="EFIELD">      0.00000000</i>
   </separator>
  </separator>
  <separator name="grids" >
   <i type="int" name="NGX">    80</i>
   <i type="int" name="NGY">    80</i>
   <i type="int" name="NGZ">   210</i>
   <i type="int" name="NGXF">   160</i>
   <i type="int" name="NGYF">   160</i>
   <i type="int" name="NGZF">   420</i>
   <i type="logical" name="ADDGRID"> T  </i>
  </separator>
  <separator name="ionic" >
   <i type="int" name="NSW">     0</i>
   <i type="int" name="IBRION">    -1</i>
   <i type="int" name="MDALGO">     0</i>
   <i type="int" name="ISIF">     2</i>
   <i name="PSTRESS">      0.00000000</i>
   <i name="EDIFFG">      0.00001000</i>
   <i type="int" name="NFREE">     0</i>
   <i name="POTIM">      0.50000000</i>
   <i name="SMASS">     -3.00000000</i>
   <i name="SCALEE">      1.00000000</i>
  </separator>
  <separator name="ionic md" >
   <i name="TEBEG">      0.00010000</i>
   <i name="TEEND">      0.00010000</i>
   <i type="int" name="NBLOCK">     1</i>
   <i type="int" name="KBLOCK">     1</i>
   <i type="int" name="NPACO">   256</i>
   <i name="APACO">     16.00000000</i>
  </separator>
  <separator name="symmetry" >
   <i type="int" name="ISYM">     2</i>
   <i name="SYMPREC">      0.00001000</i>
  </separator>
  <separator name="dos" >
   <i type="int" name="LORBIT">     0</i>
   <v name="RWIGS">     -1.00000000     -1.00000000</v>
   <i type="int" name="NEDOS">   301</i>
   <i name="EMIN">     10.00000000</i>
   <i name="EMAX">    -10.00000000</i>
   <i name="EFERMI">      0.00000000</i>
  </separator>
  <separator name="writing" >
   <i type="int" name="NWRITE">     2</i>
   <i type="logical" name="LWAVE"> F  </i>
   <i type="logical" name="LDOWNSAMPLE"> F  </i>
   <i type="logical" name="LCHARG"> F  </i>
   <i type="logical" name="LPARD"> F  </i>
   <i type="logical" name="LVTOT"> F  </i>
   <i type="logical" name="LVHAR"> F  </i>
   <i type="logical" name="LELF"> F  </i>
   <i type="logical" name="LOPTICS"> F  </i>
   <v name="STM">      0.00000000      0.00000000      0.00000000      0.00000000      0.00000000      0.00000000      0.00000000</v>
  </separator>
  <separator name="performance" >
   <i type="int" name="NPAR">     4</i>
   <i type="int" name="NSIM">     4</i>
   <i type="int" name="NBLK">    -1</i>
   <i type="logical" name="LPLANE"> T  </i>
   <i type="logical" name="LSCALAPACK"> F  </i>
   <i type="logical" name="LSCAAWARE"> F  </i>
   <i type="logical" name="LSCALU"> F  </i>
   <i type="logical" name="LASYNC"> F  </i>
   <i type="logical" name="LORBITALREAL"> F  </i>
  </separator>
  <separator name="miscellaneous" >
   <i type="int" name="IDIOT">     3</i>
   <i type="int" name="ISPECIAL">     0</i>
   <i type="logical" name="LMUSIC"> F  </i>
   <v name="POMASS">     63.54600000     16.00000000</v>
   <v name="DARWINR">      0.00000000      0.00000000</v>
   <v name="DARWINV">      1.00000000      1.00000000</v>
   <i type="logical" name="LCORR"> T  </i>
  </separator>
  <i type="logical" name="GGA_COMPAT"> T  </i>
  <i type="logical" name="LBERRY"> F  </i>
  <i type="int" name="ICORELEVEL">     0</i>
  <i type="logical" name="LDAU"> F  </i>
  <i type="int" name="I_CONSTRAINED_M">     0</i>
  <separator name="electronic exchange-correlation" >
   <i type="string" name="GGA">--</i>
   <i type="int" name="VOSKOWN">     0</i>
   <i type="logical" name="LHFCALC"> F  </i>
   <i type="string" name="PRECFOCK"></i>
   <i type="logical" name="LSYMGRAD"> F  </i>
   <i type="logical" name="LHFONE"> F  </i>
   <i type="logical" name="LRHFCALC"> F  </i>
   <i type="logical" name="LTHOMAS"> F  </i>
   <i type="logical" name="LMODELHF"> F  </i>
   <i name="ENCUT4O">     -1.00000000</i>
   <i type="int" name="EXXOEP">     0</i>
   <i type="int" name="FOURORBIT">     0</i>
   <i name="AEXX">      0.00000000</i>
   <i name="HFALPHA">      0.00000000</i>
   <i name="MCALPHA">      0.00000000</i>
   <i name="ALDAX">      1.00000000</i>
   <i name="AGGAX">      1.00000000</i>
   <i name="ALDAC">      1.00000000</i>
   <i name="AGGAC">      1.00000000</i>
   <i type="int" name="NKREDX">     1</i>
   <i type="int" name="NKREDY">     1</i>
   <i type="int" name="NKREDZ">     1</i>
   <i type="logical" name="SHIFTRED"> F  </i>
   <i type="logical" name="ODDONLY"> F  </i>
   <i type="logical" name="EVENONLY"> F  </i>
   <i type="int" name="LMAXFOCK">     0</i>
   <i type="int" name="NMAXFOCKAE">     0</i>
   <i type="logical" name="LFOCKAEDFT"> F  </i>
   <i name="HFSCREEN">      0.00000000</i>
   <i name="HFSCREENC">      0.00000000</i>
   <i type="int" name="NBANDSGWLOW">     0</i>
  </separator>
  <separator name="vdW DFT" >
   <i type="logical" name="LUSE_VDW"> F  </i>
   <i name="Zab_VDW">     -0.84910000</i>
   <i name="PARAM1">      0.12340000</i>
   <i name="PARAM2">      1.00000000</i>
   <i name="PARAM3">      0.00000000</i>
  </separator>
  <separator name="model GW" >
   <i type="int" name="MODEL_GW">     0</i>
   <i name="MODEL_EPS0">     13.16858037</i>
   <i name="MODEL_ALPHA">      1.00000000</i>
  </separator>
  <separator name="linear response parameters" >
   <i type="logical" name="LEPSILON"> F  </i>
   <i type="logical" name="LRPA"> F  </i>
   <i type="logical" name="LNABLA"> F  </i>
   <i type="logical" name="LVEL"> F  </i>
   <i type="int" name="KINTER">     0</i>
   <i name="CSHIFT">      0.10000000</i>
   <i name="OMEGAMAX">     -1.00000000</i>
   <i name="DEG_THRESHOLD">      0.00200000</i>
   <i name="RTIME">     -0.10000000</i>
   <i name="WPLASMAI">      0.00000000</i>
   <v name="DFIELD">      0.00000000      0.00000000      0.00000000</v>
   <v name="WPLASMA">      0.00000000      0.00000000      0.00000000      0.00000000      0.00000000      0.00000000      0.00000000      0.00000000      0.00000000</v>
  </separator>
  <separator name="orbital magnetization" >
   <i type="logical" name="NUCIND"> F  </i>
   <v name="MAGPOS">      0.00000000      0.00000000      0.00000000</v>
   <i type="logical" name="LNICSALL"> T  </i>
   <i type="logical" name="ORBITALMAG"> F  </i>
   <i type="logical" name="LMAGBLOCH"> F  </i>
   <i type="logical" name="LCHIMAG"> F  </i>
   <i type="logical" name="LGAUGE"> T  </i>
   <i type="int" name="MAGATOM">     0</i>
   <v name="MAGDIPOL">      0.00000000      0.00000000      0.00000000</v>
   <v name="AVECCONST">      0.00000000      0.00000000      0.00000000</v>
  </separator>
  <separator name="response functions" >
   <i type="logical" name="LADDER"> F  </i>
   <i type="logical" name="LRPAFORCE"> F  </i>
   <i type="logical" name="LFXC"> F  </i>
   <i type="logical" name="LHARTREE"> T  </i>
   <i type="int" name="IBSE">     0</i>
   <v type="int" name="KPOINT">    -1     0     0     0</v>
   <i type="logical" name="LTCTE"> F  </i>
   <i type="logical" name="LTETE"> F  </i>
   <i type="logical" name="LTRIPLET"> F  </i>
   <i type="logical" name="LFXCEPS"> F  </i>
   <i type="logical" name="LFXHEG"> F  </i>
   <i type="int" name="NATURALO">     2</i>
   <i type="logical" name="L2ORDER"> F  </i>
   <i type="logical" name="LMP2LT"> F  </i>
   <i type="logical" name="LUSEW"> F  </i>
   <i name="ENCUTGW">     -2.00000000</i>
   <i name="ENCUTGWSOFT">     -2.00000000</i>
   <i name="ENCUTLF">     -1.00000000</i>
   <i type="int" name="LMAXMP2">    -1</i>
   <i name="SCISSOR">      0.00000000</i>
   <i type="int" name="NOMEGA">     0</i>
   <i type="int" name="NOMEGAR">     0</i>
   <i type="int" name="NBANDSGW">    -1</i>
   <i type="int" name="NBANDSO">    -1</i>
   <i type="int" name="NBANDSV">    -1</i>
   <i type="int" name="NELM">   300</i>
   <i type="int" name="NELMHF">     1</i>
   <i type="int" name="DIM">     3</i>
   <i type="int" name="ANTIRES">     0</i>
   <i name="OMEGAMAX">    -30.00000000</i>
   <i name="OMEGAMIN">    -30.00000000</i>
   <i name="OMEGATL">   -200.00000000</i>
   <i type="int" name="OMEGAGRID">   140</i>
   <i name="CSHIFT">     -0.10000000</i>
   <i type="logical" name="SELFENERGY"> F  </i>
   <i type="logical" name="LSPECTRAL"> F  </i>
   <i type="logical" name="LSPECTRALGW"> F  </i>
   <i type="logical" name="LSINGLES"> F  </i>
   <i type="logical" name="LFERMIGW"> F  </i>
   <i type="logical" name="ODDONLYGW"> F  </i>
   <i type="logical" name="EVENONLYGW"> F  </i>
   <i type="int" name="NKREDLFX">     1</i>
   <i type="int" name="NKREDLFY">     1</i>
   <i type="int" name="NKREDLFZ">     1</i>
   <i type="int" name="MAXMEM">  2800</i>
   <i type="int" name="TELESCOPE">     0</i>
   <i type="int" name="TAUPAR">     1</i>
   <i type="int" name="OMEGAPAR">    -1</i>
   <i name="LAMBDA">      1.00000000</i>
  </separator>
  <separator name="External order field" >
   <i name="OFIELD_KAPPA">      0.00000000</i>
   <v name="OFIELD_K">      0.00000000      0.00000000      0.00000000</v>
   <i name="OFIELD_Q6_NEAR">      0.00000000</i>
   <i name="OFIELD_Q6_FAR">      0.00000000</i>
   <i name="OFIELD_A">      0.00000000</i>
  </separator>
 </parameters>
 <atominfo>
  <atoms>     116 </atoms>
  <types>       2 </types>
  <array name="atoms" >
   <dimension dim="1">ion</dimension>
   <field type="string">element</field>
   <field type="int">atomtype</field>
   <set>
    <rc><c>Cu</c><c>   1</c></rc>
    <rc><c>Cu</c><c>   1</c></rc>
    <rc><c>Cu</c><c>   1</c></rc>
    <rc><c>Cu</c><c>   1</c></rc>
    <rc><c>Cu</c><c>   1</c></rc>
    <rc><c>Cu</c><c>   1</c></rc>
    <rc><c>Cu</c><c>   1</c></rc>
    <rc><c>Cu</c><c>   1</c></rc>
    <rc><c>Cu</c><c>   1</c></rc>
    <rc><c>Cu</c><c>   1</c></rc>
    <rc><c>Cu</c><c>   1</c></rc>
    <rc><c>Cu</c><c>   1</c></rc>
    <rc><c>Cu</c><c>   1</c></rc>
    <rc><c>Cu</c><c>   1</c></rc>
    <rc><c>Cu</c><c>   1</c></rc>
    <rc><c>Cu</c><c>   1</c></rc>
    <rc><c>Cu</c><c>   1</c></rc>
    <rc><c>Cu</c><c>   1</c></rc>
    <rc><c>Cu</c><c>   1</c></rc>
    <rc><c>Cu</c><c>   1</c></rc>
    <rc><c>Cu</c><c>   1</c></rc>
    <rc><c>Cu</c><c>   1</c></rc>
    <rc><c>Cu</c><c>   1</c></rc>
    <rc><c>Cu</c><c>   1</c></rc>
    <rc><c>Cu</c><c>   1</c></rc>
    <rc><c>Cu</c><c>   1</c></rc>
    <rc><c>Cu</c><c>   1</c></rc>
    <rc><c>Cu</c><c>   1</c></rc>
    <rc><c>Cu</c><c>   1</c></rc>
    <rc><c>Cu</c><c>   1</c></rc>
    <rc><c>Cu</c><c>   1</c></rc>
    <rc><c>Cu</c><c>   1</c></rc>
    <rc><c>Cu</c><c>   1</c></rc>
    <rc><c>Cu</c><c>   1</c></rc>
    <rc><c>Cu</c><c>   1</c></rc>
    <rc><c>Cu</c><c>   1</c></rc>
    <rc><c>Cu</c><c>   1</c></rc>
    <rc><c>Cu</c><c>   1</c></rc>
    <rc><c>Cu</c><c>   1</c></rc>
    <rc><c>Cu</c><c>   1</c></rc>
    <rc><c>Cu</c><c>   1</c></rc>
    <rc><c>Cu</c><c>   1</c></rc>
    <rc><c>Cu</c><c>   1</c></rc>
    <rc><c>Cu</c><c>   1</c></rc>
    <rc><c>Cu</c><c>   1</c></rc>
    <rc><c>Cu</c><c>   1</c></rc>
    <rc><c>Cu</c><c>   1</c></rc>
    <rc><c>Cu</c><c>   1</c></rc>
    <rc><c>Cu</c><c>   1</c></rc>
    <rc><c>Cu</c><c>   1</c></rc>
    <rc><c>Cu</c><c>   1</c></rc>
    <rc><c>Cu</c><c>   1</c></rc>
    <rc><c>Cu</c><c>   1</c></rc>
    <rc><c>Cu</c><c>   1</c></rc>
    <rc><c>Cu</c><c>   1</c></rc>
    <rc><c>Cu</c><c>   1</c></rc>
    <rc><c>Cu</c><c>   1</c></rc>
    <rc><c>Cu</c><c>   1</c></rc>
    <rc><c>Cu</c><c>   1</c></rc>
    <rc><c>Cu</c><c>   1</c></rc>
    <rc><c>Cu</c><c>   1</c></rc>
    <rc><c>Cu</c><c>   1</c></rc>
    <rc><c>Cu</c><c>   1</c></rc>
    <rc><c>Cu</c><c>   1</c></rc>
    <rc><c>Cu</c><c>   1</c></rc>
    <rc><c>Cu</c><c>   1</c></rc>
    <rc><c>Cu</c><c>   1</c></rc>
    <rc><c>Cu</c><c>   1</c></rc>
    <rc><c>Cu</c><c>   1</c></rc>
    <rc><c>Cu</c><c>   1</c></rc>
    <rc><c>Cu</c><c>   1</c></rc>
    <rc><c>Cu</c><c>   1</c></rc>
    <rc><c>Cu</c><c>   1</c></rc>
    <rc><c>Cu</c><c>   1</c></rc>
    <rc><c>Cu</c><c>   1</c></rc>
    <rc><c>Cu</c><c>   1</c></rc>
    <rc><c>Cu</c><c>   1</c></rc>
    <rc><c>Cu</c><c>   1</c></rc>
    <rc><c>Cu</c><c>   1</c></rc>
    <rc><c>Cu</c><c>   1</c></rc>
    <rc><c>Cu</c><c>   1</c></rc>
    <rc><c>Cu</c><c>   1</c></rc>
    <rc><c>Cu</c><c>   1</c></rc>
    <rc><c>Cu</c><c>   1</c></rc>
    <rc><c>Cu</c><c>   1</c></rc>
    <rc><c>Cu</c><c>   1</c></rc>
    <rc><c>Cu</c><c>   1</c></rc>
    <rc><c>Cu</c><c>   1</c></rc>
    <rc><c>Cu</c><c>   1</c></rc>
    <rc><c>Cu</c><c>   1</c></rc>
    <rc><c>Cu</c><c>   1</c></rc>
    <rc><c>Cu</c><c>   1</c></rc>
    <rc><c>Cu</c><c>   1</c></rc>
    <rc><c>Cu</c><c>   1</c></rc>
    <rc><c>Cu</c><c>   1</c></rc>
    <rc><c>Cu</c><c>   1</c></rc>
    <rc><c>Cu</c><c>   1</c></rc>
    <rc><c>Cu</c><c>   1</c></rc>
    <rc><c>Cu</c><c>   1</c></rc>
    <rc><c>Cu</c><c>   1</c></rc>
    <rc><c>Cu</c><c>   1</c></rc>
    <rc><c>Cu</c><c>   1</c></rc>
    <rc><c>Cu</c><c>   1</c></rc>
    <rc><c>Cu</c><c>   1</c></rc>
    <rc><c>Cu</c><c>   1</c></rc>
    <rc><c>Cu</c><c>   1</c></rc>
    <rc><c>Cu</c><c>   1</c></rc>
    <rc><c>Cu</c><c>   1</c></rc>
    <rc><c>Cu</c><c>   1</c></rc>
    <rc><c>Cu</c><c>   1</c></rc>
    <rc><c>Cu</c><c>   1</c></rc>
    <rc><c>Cu</c><c>   1</c></rc>
    <rc><c>O </c><c>   2</c></rc>
    <rc><c>O </c><c>   2</c></rc>
    <rc><c>O </c><c>   2</c></rc>
    <rc><c>O </c><c>   2</c></rc>
   </set>
  </array>
  <array name="atomtypes" >
   <dimension dim="1">type</dimension>
   <field type="int">atomspertype</field>
   <field type="string">element</field>
   <field>mass</field>
   <field>valence</field>
   <field type="string">pseudopotential</field>
   <set>
    <rc><c> 112</c><c>Cu</c><c>     63.54600000</c><c>     11.00000000</c><c> PAW_PBE Cu 05Jan2001                   </c></rc>
    <rc><c>   4</c><c>O </c><c>     16.00000000</c><c>      6.00000000</c><c> PAW_PBE O 08Apr2002                    </c></rc>
   </set>
  </array>
 </atominfo>
 <structure name="initialpos" >
  <crystal>
   <varray name="basis" >
    <v>      10.28518105       0.00000000       0.00000000 </v>
    <v>       5.14259052       8.90722807       0.00000000 </v>
    <v>       0.00000000       0.00000000      27.79016876 </v>
   </varray>
   <i name="volume">   2545.92553775 </i>
   <varray name="rec_basis" >
    <v>       0.09722726      -0.05613419       0.00000000 </v>
    <v>       0.00000000       0.11226837       0.00000000 </v>
    <v>       0.00000000       0.00000000       0.03598395 </v>
   </varray>
  </crystal>
  <varray name="positions" >
   <v>       0.00000000       0.00000000       0.22663990 </v>
   <v>       0.00000000       0.50000000       0.22663990 </v>
   <v>       0.50000000       0.00000000       0.22663990 </v>
   <v>       0.50000000       0.50000000       0.22663990 </v>
   <v>       0.00000000       0.25000000       0.22663990 </v>
   <v>       0.00000000       0.75000000       0.22663990 </v>
   <v>       0.50000000       0.25000000       0.22663990 </v>
   <v>       0.50000000       0.75000000       0.22663990 </v>
   <v>       0.25000000       0.00000000       0.22663990 </v>
   <v>       0.25000000       0.50000000       0.22663990 </v>
   <v>       0.75000000       0.00000000       0.22663990 </v>
   <v>       0.75000000       0.50000000       0.22663990 </v>
   <v>       0.25000000       0.25000000       0.22663990 </v>
   <v>       0.25000000       0.75000000       0.22663990 </v>
   <v>       0.75000000       0.25000000       0.22663990 </v>
   <v>       0.75000000       0.75000000       0.22663990 </v>
   <v>       0.16666666       0.16666666       0.30218653 </v>
   <v>       0.16666666       0.66666666       0.30218653 </v>
   <v>       0.66666666       0.16666666       0.30218653 </v>
   <v>       0.66666666       0.66666666       0.30218653 </v>
   <v>       0.16666666       0.41666666       0.30218653 </v>
   <v>       0.16666666       0.91666666       0.30218653 </v>
   <v>       0.66666666       0.41666666       0.30218653 </v>
   <v>       0.66666666       0.91666666       0.30218653 </v>
   <v>       0.41666666       0.16666666       0.30218653 </v>
   <v>       0.41666666       0.66666666       0.30218653 </v>
   <v>       0.91666666       0.16666666       0.30218653 </v>
   <v>       0.91666666       0.66666666       0.30218653 </v>
   <v>       0.41666666       0.41666666       0.30218653 </v>
   <v>       0.41666666       0.91666666       0.30218653 </v>
   <v>       0.91666666       0.41666666       0.30218653 </v>
   <v>       0.91666666       0.91666666       0.30218653 </v>
   <v>       0.08333333       0.08333333       0.37716320 </v>
   <v>       0.08333333       0.58333333       0.37716320 </v>
   <v>       0.58333333       0.08333333       0.37716320 </v>
   <v>       0.58333333       0.58333333       0.37716320 </v>
   <v>       0.08351614       0.33324190       0.37729758 </v>
   <v>       0.08351614       0.83324190       0.37729758 </v>
   <v>       0.58351614       0.33324190       0.37729758 </v>
   <v>       0.58351614       0.83324190       0.37729758 </v>
   <v>       0.33324190       0.08351614       0.37729758 </v>
   <v>       0.33324190       0.58351614       0.37729758 </v>
   <v>       0.83324190       0.08351614       0.37729758 </v>
   <v>       0.83324190       0.58351614       0.37729758 </v>
   <v>       0.33324190       0.33324190       0.37729758 </v>
   <v>       0.33324190       0.83324190       0.37729758 </v>
   <v>       0.83324190       0.33324190       0.37729758 </v>
   <v>       0.83324190       0.83324190       0.37729758 </v>
   <v>       0.00012997       0.00012997       0.45242342 </v>
   <v>       0.00012997       0.50012997       0.45242342 </v>
   <v>       0.50012997       0.00012997       0.45242342 </v>
   <v>       0.50012997       0.50012997       0.45242342 </v>
   <v>       0.00012997       0.24974005       0.45242342 </v>
   <v>       0.00012997       0.74974005       0.45242342 </v>
   <v>       0.50012997       0.24974005       0.45242342 </v>
   <v>       0.50012997       0.74974005       0.45242342 </v>
   <v>       0.24974005       0.00012997       0.45242342 </v>
   <v>       0.24974005       0.50012997       0.45242342 </v>
   <v>       0.74974005       0.00012997       0.45242342 </v>
   <v>       0.74974005       0.50012997       0.45242342 </v>
   <v>       0.25000000       0.25000000       0.45288750 </v>
   <v>       0.25000000       0.75000000       0.45288750 </v>
   <v>       0.75000000       0.25000000       0.45288750 </v>
   <v>       0.75000000       0.75000000       0.45288750 </v>
   <v>       0.16660598       0.16660598       0.52813907 </v>
   <v>       0.16660598       0.66660598       0.52813907 </v>
   <v>       0.66660598       0.16660598       0.52813907 </v>
   <v>       0.66660598       0.66660598       0.52813907 </v>
   <v>       0.16660598       0.41678801       0.52813907 </v>
   <v>       0.16660598       0.91678801       0.52813907 </v>
   <v>       0.66660598       0.41678801       0.52813907 </v>
   <v>       0.66660598       0.91678801       0.52813907 </v>
   <v>       0.41678801       0.16660598       0.52813907 </v>
   <v>       0.41678801       0.66660598       0.52813907 </v>
   <v>       0.91678801       0.16660598       0.52813907 </v>
   <v>       0.91678801       0.66660598       0.52813907 </v>
   <v>       0.41666666       0.41666666       0.52741939 </v>
   <v>       0.41666666       0.91666666       0.52741939 </v>
   <v>       0.91666666       0.41666666       0.52741939 </v>
   <v>       0.91666666       0.91666666       0.52741939 </v>
   <v>       0.08333333       0.08333333       0.60253339 </v>
   <v>       0.08333333       0.58333333       0.60253339 </v>
   <v>       0.58333333       0.08333333       0.60253339 </v>
   <v>       0.58333333       0.58333333       0.60253339 </v>
   <v>       0.08130935       0.33434529       0.60320464 </v>
   <v>       0.08130935       0.83434529       0.60320464 </v>
   <v>       0.58130935       0.33434529       0.60320464 </v>
   <v>       0.58130935       0.83434529       0.60320464 </v>
   <v>       0.33434529       0.08130935       0.60320464 </v>
   <v>       0.33434529       0.58130935       0.60320464 </v>
   <v>       0.83434529       0.08130935       0.60320464 </v>
   <v>       0.83434529       0.58130935       0.60320464 </v>
   <v>       0.33434529       0.33434529       0.60320464 </v>
   <v>       0.33434529       0.83434529       0.60320464 </v>
   <v>       0.83434529       0.33434529       0.60320464 </v>
   <v>       0.83434529       0.83434529       0.60320464 </v>
   <v>       0.49714648       0.49714648       0.68057248 </v>
   <v>       0.49714648       0.99714648       0.68057248 </v>
   <v>       0.99714648       0.49714648       0.68057248 </v>
   <v>       0.99714648       0.99714648       0.68057248 </v>
   <v>       0.49714648       0.25570704       0.68057248 </v>
   <v>       0.49714648       0.75570704       0.68057248 </v>
   <v>       0.99714648       0.25570704       0.68057248 </v>
   <v>       0.99714648       0.75570704       0.68057248 </v>
   <v>       0.25570704       0.49714648       0.68057248 </v>
   <v>       0.25570704       0.99714648       0.68057248 </v>
   <v>       0.75570704       0.49714648       0.68057248 </v>
   <v>       0.75570704       0.99714648       0.68057248 </v>
   <v>       0.24862500       0.25000000       0.67429982 </v>
   <v>       0.25000000       0.75000000       0.67480871 </v>
   <v>       0.75000000       0.25000000       0.67480871 </v>
   <v>       0.75000000       0.75000000       0.67480871 </v>
   <v>       0.08333333       0.08333333       0.72043888 </v>
   <v>       0.08333333       0.58333333       0.72043888 </v>
   <v>       0.58333333       0.08333333       0.72043888 </v>
   <v>       0.58333333       0.58333333       0.72043888 </v>
  </varray>
 </structure>
 <calculation>
  <scstep>
   <time name="dav">  160.79  161.06</time>
   <time name="total">  161.37  161.66</time>
   <energy>
    <i name="alphaZ">   6463.29446255 </i>
    <i name="ewald"> 664657.05158747 </i>
    <i name="hartreedc">-815411.67484060 </i>
    <i name="XCdc">   5009.45170846 </i>
    <i name="pawpsdc"> 122173.85035501 </i>
    <i name="pawaedc">-138312.01710912 </i>
    <i name="eentropy">     -0.02916700 </i>
    <i name="bandstr">   8852.55648204 </i>
    <i name="atom"> 157518.83071590 </i>
    <i name="e_fr_energy">  10951.31419471 </i>
    <i name="e_wo_entrp">  10951.34336171 </i>
    <i name="e_0_energy">  10951.32877821 </i>
   </energy>
  </scstep>
  <scstep>
   <time name="dav">  162.01  162.29</time>
   <time name="total">  162.03  162.31</time>
   <energy>
    <i name="e_fr_energy">   1074.17388697 </i>
    <i name="e_wo_entrp">   1074.22170584 </i>
    <i name="e_0_energy">   1074.19779640 </i>
   </energy>
  </scstep>
  <scstep>
   <time name="dav">  211.62  211.91</time>
   <time name="total">  211.65  211.94</time>
   <energy>
    <i name="e_fr_energy">   -373.62207996 </i>
    <i name="e_wo_entrp">   -373.55694761 </i>
    <i name="e_0_energy">   -373.58951378 </i>
   </energy>
  </scstep>
  <scstep>
   <time name="dav">  182.80  183.09</time>
   <time name="total">  182.82  183.12</time>
   <energy>
    <i name="e_fr_energy">   -524.82522466 </i>
    <i name="e_wo_entrp">   -524.76200569 </i>
    <i name="e_0_energy">   -524.79361517 </i>
   </energy>
  </scstep>
  <scstep>
   <time name="dav">  168.83  169.23</time>
   <time name="total">  173.45  173.85</time>
   <energy>
    <i name="e_fr_energy">   -530.87010624 </i>
    <i name="e_wo_entrp">   -530.80676123 </i>
    <i name="e_0_energy">   -530.83843374 </i>
   </energy>
  </scstep>
  <scstep>
   <time name="dav">  171.67  172.00</time>
   <time name="total">  178.79  179.17</time>
   <energy>
    <i name="e_fr_energy">   -478.07244057 </i>
    <i name="e_wo_entrp">   -478.01609634 </i>
    <i name="e_0_energy">   -478.04426845 </i>
   </energy>
  </scstep>
  <scstep>
   <time name="dav">  178.34  178.61</time>
   <time name="total">  183.35  183.66</time>
   <energy>
    <i name="e_fr_energy">   -511.62461320 </i>
    <i name="e_wo_entrp">   -511.50135348 </i>
    <i name="e_0_energy">   -511.56298334 </i>
   </energy>
  </scstep>
  <scstep>
   <time name="dav">  198.74  199.18</time>
   <time name="total">  203.75  204.24</time>
   <energy>
    <i name="e_fr_energy">   -444.95578396 </i>
    <i name="e_wo_entrp">   -444.87233711 </i>
    <i name="e_0_energy">   -444.91406054 </i>
   </energy>
  </scstep>
  <scstep>
   <time name="dav">  195.72  196.03</time>
   <time name="total">  200.71  201.06</time>
   <energy>
    <i name="e_fr_energy">   -428.54964110 </i>
    <i name="e_wo_entrp">   -428.51061593 </i>
    <i name="e_0_energy">   -428.53012852 </i>
   </energy>
  </scstep>
  <scstep>
   <time name="dav">  175.57  175.87</time>
   <time name="total">  180.54  180.88</time>
   <energy>
    <i name="e_fr_energy">   -429.30836967 </i>
    <i name="e_wo_entrp">   -429.25501610 </i>
    <i name="e_0_energy">   -429.28169288 </i>
   </energy>
  </scstep>
  <scstep>
   <time name="dav">  179.68  180.11</time>
   <time name="total">  184.69  185.16</time>
   <energy>
    <i name="e_fr_energy">   -427.93663052 </i>
    <i name="e_wo_entrp">   -427.87010685 </i>
    <i name="e_0_energy">   -427.90336869 </i>
   </energy>
  </scstep>
  <scstep>
   <time name="dav">  194.46  194.82</time>
   <time name="total">  199.52  200.57</time>
   <energy>
    <i name="e_fr_energy">   -427.70037625 </i>
    <i name="e_wo_entrp">   -427.64542039 </i>
    <i name="e_0_energy">   -427.67289832 </i>
   </energy>
  </scstep>
  <scstep>
   <time name="dav">  167.91  168.11</time>
   <time name="total">  172.87  173.08</time>
   <energy>
    <i name="e_fr_energy">   -427.64651702 </i>
    <i name="e_wo_entrp">   -427.59174810 </i>
    <i name="e_0_energy">   -427.61913256 </i>
   </energy>
  </scstep>
  <scstep>
   <time name="dav">  175.01  175.21</time>
   <time name="total">  180.06  180.26</time>
   <energy>
    <i name="e_fr_energy">   -427.54166091 </i>
    <i name="e_wo_entrp">   -427.49242754 </i>
    <i name="e_0_energy">   -427.51704422 </i>
   </energy>
  </scstep>
  <scstep>
   <time name="dav">  167.97  168.49</time>
   <time name="total">  173.01  173.53</time>
   <energy>
    <i name="e_fr_energy">   -427.61335718 </i>
    <i name="e_wo_entrp">   -427.56493061 </i>
    <i name="e_0_energy">   -427.58914390 </i>
   </energy>
  </scstep>
  <scstep>
   <time name="dav">  165.80  166.00</time>
   <time name="total">  170.78  170.99</time>
   <energy>
    <i name="e_fr_energy">   -427.51393113 </i>
    <i name="e_wo_entrp">   -427.46433100 </i>
    <i name="e_0_energy">   -427.48913106 </i>
   </energy>
  </scstep>
  <scstep>
   <time name="dav">  172.51  172.72</time>
   <time name="total">  177.54  177.76</time>
   <energy>
    <i name="e_fr_energy">   -427.47952511 </i>
    <i name="e_wo_entrp">   -427.42833478 </i>
    <i name="e_0_energy">   -427.45392994 </i>
   </energy>
  </scstep>
  <scstep>
   <time name="dav">  190.59  190.92</time>
   <time name="total">  195.57  195.91</time>
   <energy>
    <i name="e_fr_energy">   -427.46544724 </i>
    <i name="e_wo_entrp">   -427.41291839 </i>
    <i name="e_0_energy">   -427.43918281 </i>
   </energy>
  </scstep>
  <scstep>
   <time name="dav">  173.92  174.15</time>
   <time name="total">  178.89  179.13</time>
   <energy>
    <i name="e_fr_energy">   -427.46524994 </i>
    <i name="e_wo_entrp">   -427.41214648 </i>
    <i name="e_0_energy">   -427.43869821 </i>
   </energy>
  </scstep>
  <scstep>
   <time name="dav">  162.10  162.32</time>
   <time name="total">  167.11  167.34</time>
   <energy>
    <i name="e_fr_energy">   -427.46573379 </i>
    <i name="e_wo_entrp">   -427.41243558 </i>
    <i name="e_0_energy">   -427.43908469 </i>
   </energy>
  </scstep>
  <scstep>
   <time name="dav">  166.95  167.26</time>
   <time name="total">  172.05  172.37</time>
   <energy>
    <i name="e_fr_energy">   -427.46617525 </i>
    <i name="e_wo_entrp">   -427.41257829 </i>
    <i name="e_0_energy">   -427.43937677 </i>
   </energy>
  </scstep>
  <scstep>
   <time name="dav">  161.81  162.00</time>
   <time name="total">  166.78  166.98</time>
   <energy>
    <i name="e_fr_energy">   -427.46620002 </i>
    <i name="e_wo_entrp">   -427.41286213 </i>
    <i name="e_0_energy">   -427.43953107 </i>
   </energy>
  </scstep>
  <scstep>
   <time name="dav">  158.54  158.76</time>
   <time name="total">  164.04  164.26</time>
   <energy>
    <i name="e_fr_energy">   -427.46623026 </i>
    <i name="e_wo_entrp">   -427.41291640 </i>
    <i name="e_0_energy">   -427.43957333 </i>
   </energy>
  </scstep>
  <scstep>
   <time name="dav">  155.12  155.30</time>
   <time name="total">  161.52  161.71</time>
   <energy>
    <i name="e_fr_energy">   -427.46636291 </i>
    <i name="e_wo_entrp">   -427.41304329 </i>
    <i name="e_0_energy">   -427.43970310 </i>
   </energy>
  </scstep>
  <scstep>
   <time name="dav">  211.37  213.18</time>
   <time name="total">  216.36  218.17</time>
   <energy>
    <i name="e_fr_energy">   -427.46651398 </i>
    <i name="e_wo_entrp">   -427.41323013 </i>
    <i name="e_0_energy">   -427.43987206 </i>
   </energy>
  </scstep>
  <scstep>
   <time name="dav">  177.40  177.64</time>
   <time name="total">  182.36  182.62</time>
   <energy>
    <i name="e_fr_energy">   -427.46676117 </i>
    <i name="e_wo_entrp">   -427.41347892 </i>
    <i name="e_0_energy">   -427.44012005 </i>
   </energy>
  </scstep>
  <scstep>
   <time name="dav">  161.14  161.36</time>
   <time name="total">  166.11  166.34</time>
   <energy>
    <i name="e_fr_energy">   -427.46701774 </i>
    <i name="e_wo_entrp">   -427.41373782 </i>
    <i name="e_0_energy">   -427.44037778 </i>
   </energy>
  </scstep>
  <scstep>
   <time name="dav">  161.71  162.02</time>
   <time name="total">  166.73  167.05</time>
   <energy>
    <i name="e_fr_energy">   -427.46719554 </i>
    <i name="e_wo_entrp">   -427.41392887 </i>
    <i name="e_0_energy">   -427.44056221 </i>
   </energy>
  </scstep>
  <scstep>
   <time name="dav">  158.68  158.88</time>
   <time name="total">  163.72  163.93</time>
   <energy>
    <i name="e_fr_energy">   -427.46731829 </i>
    <i name="e_wo_entrp">   -427.41406356 </i>
    <i name="e_0_energy">   -427.44069093 </i>
   </energy>
  </scstep>
  <scstep>
   <time name="dav">  154.77  155.03</time>
   <time name="total">  160.56  160.83</time>
   <energy>
    <i name="e_fr_energy">   -427.46743460 </i>
    <i name="e_wo_entrp">   -427.41418478 </i>
    <i name="e_0_energy">   -427.44080969 </i>
   </energy>
  </scstep>
  <scstep>
   <time name="dav">  142.49  142.69</time>
   <time name="total">  147.47  147.67</time>
   <energy>
    <i name="e_fr_energy">   -427.46751616 </i>
    <i name="e_wo_entrp">   -427.41425728 </i>
    <i name="e_0_energy">   -427.44088672 </i>
   </energy>
  </scstep>
  <scstep>
   <time name="dav">  158.96  159.40</time>
   <time name="total">  163.95  164.39</time>
   <energy>
    <i name="e_fr_energy">   -427.46758752 </i>
    <i name="e_wo_entrp">   -427.41431183 </i>
    <i name="e_0_energy">   -427.44094967 </i>
   </energy>
  </scstep>
  <scstep>
   <time name="dav">  129.83  130.01</time>
   <time name="total">  134.80  134.99</time>
   <energy>
    <i name="e_fr_energy">   -427.46761753 </i>
    <i name="e_wo_entrp">   -427.41433815 </i>
    <i name="e_0_energy">   -427.44097784 </i>
   </energy>
  </scstep>
  <scstep>
   <time name="dav">  117.22  117.41</time>
   <time name="total">  122.20  122.42</time>
   <energy>
    <i name="e_fr_energy">   -427.46763735 </i>
    <i name="e_wo_entrp">   -427.41436120 </i>
    <i name="e_0_energy">   -427.44099927 </i>
   </energy>
  </scstep>
  <scstep>
   <time name="dav">  116.51  116.67</time>
   <time name="total">  121.58  121.75</time>
   <energy>
    <i name="e_fr_energy">   -427.46766071 </i>
    <i name="e_wo_entrp">   -427.41439220 </i>
    <i name="e_0_energy">   -427.44102646 </i>
   </energy>
  </scstep>
  <scstep>
   <time name="dav">  113.74  113.89</time>
   <time name="total">  118.72  118.88</time>
   <energy>
    <i name="e_fr_energy">   -427.46766818 </i>
    <i name="e_wo_entrp">   -427.41440211 </i>
    <i name="e_0_energy">   -427.44103514 </i>
   </energy>
  </scstep>
  <scstep>
   <time name="dav">  114.73  114.90</time>
   <time name="total">  119.73  119.92</time>
   <energy>
    <i name="e_fr_energy">   -427.46767734 </i>
    <i name="e_wo_entrp">   -427.41441043 </i>
    <i name="e_0_energy">   -427.44104389 </i>
   </energy>
  </scstep>
  <scstep>
   <time name="dav">  113.07  113.22</time>
   <time name="total">  118.12  118.28</time>
   <energy>
    <i name="e_fr_energy">   -427.46768079 </i>
    <i name="e_wo_entrp">   -427.41441224 </i>
    <i name="e_0_energy">   -427.44104651 </i>
   </energy>
  </scstep>
  <scstep>
   <time name="dav">  109.27  109.41</time>
   <time name="total">  114.27  114.41</time>
   <energy>
    <i name="e_fr_energy">   -427.46768197 </i>
    <i name="e_wo_entrp">   -427.41441316 </i>
    <i name="e_0_energy">   -427.44104757 </i>
   </energy>
  </scstep>
  <scstep>
   <time name="dav">  108.77  108.93</time>
   <time name="total">  113.77  113.94</time>
   <energy>
    <i name="e_fr_energy">   -427.46768345 </i>
    <i name="e_wo_entrp">   -427.41441412 </i>
    <i name="e_0_energy">   -427.44104879 </i>
   </energy>
  </scstep>
  <scstep>
   <time name="dav">  114.09  114.26</time>
   <time name="total">  114.58  114.75</time>
   <energy>
    <i name="alphaZ">   6463.29446255 </i>
    <i name="ewald"> 664657.05158747 </i>
    <i name="hartreedc">-813447.27781894 </i>
    <i name="XCdc">   4896.84445289 </i>
    <i name="pawpsdc"> 123761.05382980 </i>
    <i name="pawaedc">-139978.15151853 </i>
    <i name="eentropy">     -0.05326932 </i>
    <i name="bandstr">  -4299.06012594 </i>
    <i name="atom"> 157518.83071590 </i>
    <i name="e_fr_energy">   -427.46768412 </i>
    <i name="e_wo_entrp">   -427.41441480 </i>
    <i name="e_0_energy">   -427.44104946 </i>
   </energy>
  </scstep>
  <structure>
   <crystal>
    <varray name="basis" >
     <v>      10.28518105       0.00000000       0.00000000 </v>
     <v>       5.14259052       8.90722807       0.00000000 </v>
     <v>       0.00000000       0.00000000      27.79016876 </v>
    </varray>
    <i name="volume">   2545.92553775 </i>
    <varray name="rec_basis" >
     <v>       0.09722726      -0.05613419       0.00000000 </v>
     <v>       0.00000000       0.11226837       0.00000000 </v>
     <v>       0.00000000       0.00000000       0.03598395 </v>
    </varray>
   </crystal>
   <varray name="positions" >
    <v>       0.00000000       0.00000000       0.22663990 </v>
    <v>       0.00000000       0.50000000       0.22663990 </v>
    <v>       0.50000000       0.00000000       0.22663990 </v>
    <v>       0.50000000       0.50000000       0.22663990 </v>
    <v>       0.00000000       0.25000000       0.22663990 </v>
    <v>       0.00000000       0.75000000       0.22663990 </v>
    <v>       0.50000000       0.25000000       0.22663990 </v>
    <v>       0.50000000       0.75000000       0.22663990 </v>
    <v>       0.25000000       0.00000000       0.22663990 </v>
    <v>       0.25000000       0.50000000       0.22663990 </v>
    <v>       0.75000000       0.00000000       0.22663990 </v>
    <v>       0.75000000       0.50000000       0.22663990 </v>
    <v>       0.25000000       0.25000000       0.22663990 </v>
    <v>       0.25000000       0.75000000       0.22663990 </v>
    <v>       0.75000000       0.25000000       0.22663990 </v>
    <v>       0.75000000       0.75000000       0.22663990 </v>
    <v>       0.16666666       0.16666666       0.30218653 </v>
    <v>       0.16666666       0.66666666       0.30218653 </v>
    <v>       0.66666666       0.16666666       0.30218653 </v>
    <v>       0.66666666       0.66666666       0.30218653 </v>
    <v>       0.16666666       0.41666666       0.30218653 </v>
    <v>       0.16666666       0.91666666       0.30218653 </v>
    <v>       0.66666666       0.41666666       0.30218653 </v>
    <v>       0.66666666       0.91666666       0.30218653 </v>
    <v>       0.41666666       0.16666666       0.30218653 </v>
    <v>       0.41666666       0.66666666       0.30218653 </v>
    <v>       0.91666666       0.16666666       0.30218653 </v>
    <v>       0.91666666       0.66666666       0.30218653 </v>
    <v>       0.41666666       0.41666666       0.30218653 </v>
    <v>       0.41666666       0.91666666       0.30218653 </v>
    <v>       0.91666666       0.41666666       0.30218653 </v>
    <v>       0.91666666       0.91666666       0.30218653 </v>
    <v>       0.08333333       0.08333333       0.37716320 </v>
    <v>       0.08333333       0.58333333       0.37716320 </v>
    <v>       0.58333333       0.08333333       0.37716320 </v>
    <v>       0.58333333       0.58333333       0.37716320 </v>
    <v>       0.08351614       0.33324190       0.37729758 </v>
    <v>       0.08351614       0.83324190       0.37729758 </v>
    <v>       0.58351614       0.33324190       0.37729758 </v>
    <v>       0.58351614       0.83324190       0.37729758 </v>
    <v>       0.33324190       0.08351614       0.37729758 </v>
    <v>       0.33324190       0.58351614       0.37729758 </v>
    <v>       0.83324190       0.08351614       0.37729758 </v>
    <v>       0.83324190       0.58351614       0.37729758 </v>
    <v>       0.33324190       0.33324190       0.37729758 </v>
    <v>       0.33324190       0.83324190       0.37729758 </v>
    <v>       0.83324190       0.33324190       0.37729758 </v>
    <v>       0.83324190       0.83324190       0.37729758 </v>
    <v>       0.00012997       0.00012997       0.45242342 </v>
    <v>       0.00012997       0.50012997       0.45242342 </v>
    <v>       0.50012997       0.00012997       0.45242342 </v>
    <v>       0.50012997       0.50012997       0.45242342 </v>
    <v>       0.00012997       0.24974005       0.45242342 </v>
    <v>       0.00012997       0.74974005       0.45242342 </v>
    <v>       0.50012997       0.24974005       0.45242342 </v>
    <v>       0.50012997       0.74974005       0.45242342 </v>
    <v>       0.24974005       0.00012997       0.45242342 </v>
    <v>       0.24974005       0.50012997       0.45242342 </v>
    <v>       0.74974005       0.00012997       0.45242342 </v>
    <v>       0.74974005       0.50012997       0.45242342 </v>
    <v>       0.25000000       0.25000000       0.45288750 </v>
    <v>       0.25000000       0.75000000       0.45288750 </v>
    <v>       0.75000000       0.25000000       0.45288750 </v>
    <v>       0.75000000       0.75000000       0.45288750 </v>
    <v>       0.16660598       0.16660598       0.52813907 </v>
    <v>       0.16660598       0.66660598       0.52813907 </v>
    <v>       0.66660598       0.16660598       0.52813907 </v>
    <v>       0.66660598       0.66660598       0.52813907 </v>
    <v>       0.16660598       0.41678801       0.52813907 </v>
    <v>       0.16660598       0.91678801       0.52813907 </v>
    <v>       0.66660598       0.41678801       0.52813907 </v>
    <v>       0.66660598       0.91678801       0.52813907 </v>
    <v>       0.41678801       0.16660598       0.52813907 </v>
    <v>       0.41678801       0.66660598       0.52813907 </v>
    <v>       0.91678801       0.16660598       0.52813907 </v>
    <v>       0.91678801       0.66660598       0.52813907 </v>
    <v>       0.41666666       0.41666666       0.52741939 </v>
    <v>       0.41666666       0.91666666       0.52741939 </v>
    <v>       0.91666666       0.41666666       0.52741939 </v>
    <v>       0.91666666       0.91666666       0.52741939 </v>
    <v>       0.08333333       0.08333333       0.60253339 </v>
    <v>       0.08333333       0.58333333       0.60253339 </v>
    <v>       0.58333333       0.08333333       0.60253339 </v>
    <v>       0.58333333       0.58333333       0.60253339 </v>
    <v>       0.08130935       0.33434529       0.60320464 </v>
    <v>       0.08130935       0.83434529       0.60320464 </v>
    <v>       0.58130935       0.33434529       0.60320464 </v>
    <v>       0.58130935       0.83434529       0.60320464 </v>
    <v>       0.33434529       0.08130935       0.60320464 </v>
    <v>       0.33434529       0.58130935       0.60320464 </v>
    <v>       0.83434529       0.08130935       0.60320464 </v>
    <v>       0.83434529       0.58130935       0.60320464 </v>
    <v>       0.33434529       0.33434529       0.60320464 </v>
    <v>       0.33434529       0.83434529       0.60320464 </v>
    <v>       0.83434529       0.33434529       0.60320464 </v>
    <v>       0.83434529       0.83434529       0.60320464 </v>
    <v>       0.49714648       0.49714648       0.68057248 </v>
    <v>       0.49714648       0.99714648       0.68057248 </v>
    <v>       0.99714648       0.49714648       0.68057248 </v>
    <v>       0.99714648       0.99714648       0.68057248 </v>
    <v>       0.49714648       0.25570704       0.68057248 </v>
    <v>       0.49714648       0.75570704       0.68057248 </v>
    <v>       0.99714648       0.25570704       0.68057248 </v>
    <v>       0.99714648       0.75570704       0.68057248 </v>
    <v>       0.25570704       0.49714648       0.68057248 </v>
    <v>       0.25570704       0.99714648       0.68057248 </v>
    <v>       0.75570704       0.49714648       0.68057248 </v>
    <v>       0.75570704       0.99714648       0.68057248 </v>
    <v>       0.24862500       0.25000000       0.67429982 </v>
    <v>       0.25000000       0.75000000       0.67480871 </v>
    <v>       0.75000000       0.25000000       0.67480871 </v>
    <v>       0.75000000       0.75000000       0.67480871 </v>
    <v>       0.08333333       0.08333333       0.72043888 </v>
    <v>       0.08333333       0.58333333       0.72043888 </v>
    <v>       0.58333333       0.08333333       0.72043888 </v>
    <v>       0.58333333       0.58333333       0.72043888 </v>
   </varray>
  </structure>
  <varray name="forces" >
   <v>       0.00793915       0.00452347       0.07164845 </v>
   <v>       0.00794048       0.00456336       0.07157787 </v>
   <v>       0.00792166       0.00459672       0.07154403 </v>
   <v>       0.00786974       0.00454200       0.07171289 </v>
   <v>      -0.00000524      -0.00914737       0.07161719 </v>
   <v>       0.00010591      -0.00917972       0.07167934 </v>
   <v>       0.00000519      -0.00914812       0.07154940 </v>
   <v>       0.00000466      -0.00911015       0.07168827 </v>
   <v>      -0.00792621       0.00454252       0.07162237 </v>
   <v>      -0.00789662       0.00459447       0.07158853 </v>
   <v>      -0.00795732       0.00465627       0.07171108 </v>
   <v>      -0.00790535       0.00456795       0.07166696 </v>
   <v>      -0.00000975      -0.00000067       0.08649781 </v>
   <v>      -0.00003011       0.00002892       0.08630106 </v>
   <v>       0.00002047       0.00000293       0.08632604 </v>
   <v>      -0.00003523      -0.00003229       0.08635016 </v>
   <v>       0.00700217       0.00402348      -0.07997338 </v>
   <v>       0.00694239       0.00406849      -0.07997464 </v>
   <v>       0.00700056       0.00398379      -0.07995802 </v>
   <v>       0.00697026       0.00406812      -0.08004342 </v>
   <v>       0.00003256      -0.00808928      -0.07993435 </v>
   <v>      -0.00005111      -0.00805727      -0.07996857 </v>
   <v>      -0.00007845      -0.00804613      -0.08003590 </v>
   <v>       0.00004483      -0.00807336      -0.07993592 </v>
   <v>      -0.00700817       0.00406441      -0.07989520 </v>
   <v>      -0.00696427       0.00397410      -0.08002833 </v>
   <v>      -0.00701549       0.00399603      -0.07994807 </v>
   <v>      -0.00697757       0.00407791      -0.07993204 </v>
   <v>       0.00003452      -0.00002477      -0.05914232 </v>
   <v>       0.00007545      -0.00002374      -0.05916189 </v>
   <v>      -0.00000483       0.00004525      -0.05918193 </v>
   <v>      -0.00002836      -0.00000071      -0.05924152 </v>
   <v>      -0.00004891      -0.00006211       0.00010796 </v>
   <v>       0.00005957       0.00005857       0.00005783 </v>
   <v>       0.00005163       0.00000516       0.00000687 </v>
   <v>      -0.00000225      -0.00000046      -0.00009067 </v>
   <v>      -0.00000637       0.00000506      -0.00001081 </v>
   <v>       0.00002667      -0.00000477      -0.00006661 </v>
   <v>       0.00010755      -0.00000499      -0.00007659 </v>
   <v>       0.00001889      -0.00007802      -0.00002122 </v>
   <v>      -0.00000290       0.00005028      -0.00002007 </v>
   <v>       0.00001053       0.00008375      -0.00014338 </v>
   <v>       0.00001444       0.00000667      -0.00008344 </v>
   <v>      -0.00003740       0.00000367      -0.00003195 </v>
   <v>      -0.00009385      -0.00004949      -0.00003451 </v>
   <v>      -0.00003424      -0.00000126      -0.00015641 </v>
   <v>       0.00000716       0.00000670      -0.00010037 </v>
   <v>       0.00001572       0.00000302      -0.00010412 </v>
   <v>      -0.00006272      -0.00003604       0.00005318 </v>
   <v>       0.00002563       0.00003332      -0.00003923 </v>
   <v>       0.00007062       0.00002592      -0.00005026 </v>
   <v>       0.00001825       0.00006697       0.00001852 </v>
   <v>      -0.00004560       0.00002695       0.00002748 </v>
   <v>      -0.00000137       0.00002028       0.00002690 </v>
   <v>       0.00003968      -0.00004100       0.00000564 </v>
   <v>      -0.00009786      -0.00009421       0.00008313 </v>
   <v>       0.00001396      -0.00009329       0.00009215 </v>
   <v>       0.00005746       0.00004851       0.00008067 </v>
   <v>      -0.00002972       0.00001574       0.00000643 </v>
   <v>      -0.00014460       0.00002694       0.00015587 </v>
   <v>      -0.00006794      -0.00000043       0.00009243 </v>
   <v>       0.00009021      -0.00000605       0.00002335 </v>
   <v>       0.00007855       0.00005860       0.00009125 </v>
   <v>      -0.00001035      -0.00005068       0.00016213 </v>
   <v>      -0.00040724      -0.00017552      -0.00127433 </v>
   <v>       0.00001063      -0.00003622       0.00006865 </v>
   <v>      -0.00001379       0.00004115       0.00001966 </v>
   <v>      -0.00008706       0.00000105      -0.00029615 </v>
   <v>      -0.00010552       0.00037495      -0.00105222 </v>
   <v>       0.00011366       0.00010072       0.00014513 </v>
   <v>      -0.00008821       0.00005346      -0.00015034 </v>
   <v>      -0.00012738       0.00006573       0.00004696 </v>
   <v>       0.00023864      -0.00019997      -0.00083337 </v>
   <v>       0.00000499      -0.00005348      -0.00000808 </v>
   <v>       0.00025019       0.00008282       0.00016666 </v>
   <v>       0.00003442      -0.00025608       0.00011735 </v>
   <v>       0.00007741      -0.00001294      -0.00015748 </v>
   <v>       0.00009618       0.00001003      -0.00012204 </v>
   <v>       0.00009731      -0.00000285      -0.00008871 </v>
   <v>       0.00001921      -0.00000160      -0.00020720 </v>
   <v>      -0.00023466      -0.00028846      -0.00012644 </v>
   <v>       0.00026288       0.00001502       0.00004279 </v>
   <v>      -0.00022461       0.00027932       0.00022252 </v>
   <v>       0.00021355       0.00000042       0.00000489 </v>
   <v>      -0.02456338       0.01588191      -0.03992219 </v>
   <v>       0.00010419       0.00002684      -0.00023606 </v>
   <v>      -0.00057130      -0.00001581      -0.00006214 </v>
   <v>       0.00007203      -0.00010294      -0.00042508 </v>
   <v>       0.00283175      -0.01849688      -0.02297076 </v>
   <v>      -0.00017709      -0.00039913      -0.00011660 </v>
   <v>       0.00015679       0.00007071      -0.00024501 </v>
   <v>      -0.00052124       0.00081211      -0.00084988 </v>
   <v>       0.00772349       0.00288714      -0.00672607 </v>
   <v>      -0.00008866      -0.00039704      -0.00051688 </v>
   <v>      -0.00108924       0.00011541      -0.00088641 </v>
   <v>       0.00000012      -0.00009372      -0.00023609 </v>
   <v>      -0.00074648      -0.00049283      -0.00034158 </v>
   <v>      -0.00322996       0.01039772      -0.00023908 </v>
   <v>      -0.00377610       0.00957054       0.00180263 </v>
   <v>      -0.00053028       0.00003960      -0.00073707 </v>
   <v>      -0.02006299      -0.00172763      -0.00186614 </v>
   <v>       0.00010759       0.00014207      -0.00055703 </v>
   <v>      -0.02154273       0.00029278       0.00217610 </v>
   <v>      -0.00060055      -0.00014333      -0.00023932 </v>
   <v>      -0.00510662      -0.00867654      -0.00156356 </v>
   <v>      -0.00444631      -0.00979569       0.00043570 </v>
   <v>      -0.00050460       0.00035275      -0.00074769 </v>
   <v>      -0.00076418       0.00009307       0.00026201 </v>
   <v>       0.08058257      -0.00034336       0.07044692 </v>
   <v>       0.00002795      -0.00044057       0.00023818 </v>
   <v>      -0.00074646       0.00012635       0.00012838 </v>
   <v>      -0.00020068       0.00032285       0.00001461 </v>
   <v>      -0.00160596      -0.00142187       0.00264395 </v>
   <v>       0.00084467      -0.00017637      -0.00082155 </v>
   <v>      -0.00191975       0.00158851      -0.00419465 </v>
   <v>       0.00017641      -0.00000411       0.00104599 </v>
  </varray>
  <varray name="stress" >
   <v>      -2.03903590      -0.01048831       0.01073383 </v>
   <v>      -0.01048832      -2.04030364      -0.00033554 </v>
   <v>       0.01073383      -0.00033552      -2.07690658 </v>
  </varray>
  <energy>
   <i name="e_fr_energy">   -427.46768412 </i>
   <i name="e_wo_entrp">   -427.44104946 </i>
   <i name="e_0_energy">     -0.05326932 </i>
  </energy>
  <time name="totalsc"> 7023.20 7036.96</time>
  <eigenvalues>
   <array>
    <dimension dim="1">band</dimension>
    <dimension dim="2">kpoint</dimension>
    <dimension dim="3">spin</dimension>
    <field>eigene</field>
    <field>occ</field>
    <set>
     <set comment="spin 1">
      <set comment="kpoint 1">
       <r>  -18.6061    1.0000 </r>
       <r>  -18.5940    1.0000 </r>
       <r>  -18.5933    1.0000 </r>
       <r>  -18.5920    1.0000 </r>
       <r>   -9.4535    1.0000 </r>
       <r>   -8.9614    1.0000 </r>
       <r>   -8.1746    1.0000 </r>
       <r>   -7.6002    1.0000 </r>
       <r>   -7.5997    1.0000 </r>
       <r>   -7.5994    1.0000 </r>
       <r>   -7.5780    1.0000 </r>
       <r>   -7.5776    1.0000 </r>
       <r>   -7.5775    1.0000 </r>
       <r>   -7.2212    1.0000 </r>
       <r>   -7.2198    1.0000 </r>
       <r>   -7.2193    1.0000 </r>
       <r>   -7.2004    1.0000 </r>
       <r>   -7.1468    1.0000 </r>
       <r>   -7.1459    1.0000 </r>
       <r>   -7.1455    1.0000 </r>
       <r>   -6.6282    1.0000 </r>
       <r>   -6.6273    1.0000 </r>
       <r>   -6.6265    1.0000 </r>
       <r>   -6.4870    1.0000 </r>
       <r>   -6.4858    1.0000 </r>
       <r>   -6.4852    1.0000 </r>
       <r>   -6.2517    1.0000 </r>
       <r>   -5.9487    1.0000 </r>
       <r>   -5.9483    1.0000 </r>
       <r>   -5.9474    1.0000 </r>
       <r>   -5.7431    1.0000 </r>
       <r>   -5.7421    1.0000 </r>
       <r>   -5.7414    1.0000 </r>
       <r>   -5.6696    1.0000 </r>
       <r>   -5.6247    1.0000 </r>
       <r>   -5.6241    1.0000 </r>
       <r>   -5.4392    1.0000 </r>
       <r>   -5.4100    1.0000 </r>
       <r>   -5.4095    1.0000 </r>
       <r>   -5.4081    1.0000 </r>
       <r>   -5.3422    1.0000 </r>
       <r>   -5.3417    1.0000 </r>
       <r>   -5.3415    1.0000 </r>
       <r>   -5.3244    1.0000 </r>
       <r>   -5.2833    1.0000 </r>
       <r>   -5.2833    1.0000 </r>
       <r>   -5.2152    1.0000 </r>
       <r>   -5.2092    1.0000 </r>
       <r>   -5.2088    1.0000 </r>
       <r>   -5.2083    1.0000 </r>
       <r>   -5.1347    1.0000 </r>
       <r>   -5.1345    1.0000 </r>
       <r>   -5.1237    1.0000 </r>
       <r>   -5.0563    1.0000 </r>
       <r>   -5.0340    1.0000 </r>
       <r>   -5.0339    1.0000 </r>
       <r>   -5.0047    1.0000 </r>
       <r>   -5.0039    1.0000 </r>
       <r>   -5.0038    1.0000 </r>
       <r>   -4.9782    1.0000 </r>
       <r>   -4.9780    1.0000 </r>
       <r>   -4.9780    1.0000 </r>
       <r>   -4.9631    1.0000 </r>
       <r>   -4.9628    1.0000 </r>
       <r>   -4.9573    1.0000 </r>
       <r>   -4.9567    1.0000 </r>
       <r>   -4.9567    1.0000 </r>
       <r>   -4.9359    1.0000 </r>
       <r>   -4.8834    1.0000 </r>
       <r>   -4.8829    1.0000 </r>
       <r>   -4.8827    1.0000 </r>
       <r>   -4.8541    1.0000 </r>
       <r>   -4.8539    1.0000 </r>
       <r>   -4.8538    1.0000 </r>
       <r>   -4.8412    1.0000 </r>
       <r>   -4.8254    1.0000 </r>
       <r>   -4.8253    1.0000 </r>
       <r>   -4.8124    1.0000 </r>
       <r>   -4.8120    1.0000 </r>
       <r>   -4.8119    1.0000 </r>
       <r>   -4.7500    1.0000 </r>
       <r>   -4.7496    1.0000 </r>
       <r>   -4.7493    1.0000 </r>
       <r>   -4.7068    1.0000 </r>
       <r>   -4.7067    1.0000 </r>
       <r>   -4.7065    1.0000 </r>
       <r>   -4.7034    1.0000 </r>
       <r>   -4.6947    1.0000 </r>
       <r>   -4.6947    1.0000 </r>
       <r>   -4.6226    1.0000 </r>
       <r>   -4.6217    1.0000 </r>
       <r>   -4.6214    1.0000 </r>
       <r>   -4.5867    1.0000 </r>
       <r>   -4.5866    1.0000 </r>
       <r>   -4.5862    1.0000 </r>
       <r>   -4.5827    1.0000 </r>
       <r>   -4.5785    1.0000 </r>
       <r>   -4.5785    1.0000 </r>
       <r>   -4.5462    1.0000 </r>
       <r>   -4.5392    1.0000 </r>
       <r>   -4.5392    1.0000 </r>
       <r>   -4.5390    1.0000 </r>
       <r>   -4.5388    1.0000 </r>
       <r>   -4.5386    1.0000 </r>
       <r>   -4.5283    1.0000 </r>
       <r>   -4.5282    1.0000 </r>
       <r>   -4.5281    1.0000 </r>
       <r>   -4.5046    1.0000 </r>
       <r>   -4.5041    1.0000 </r>
       <r>   -4.5039    1.0000 </r>
       <r>   -4.4610    1.0000 </r>
       <r>   -4.4608    1.0000 </r>
       <r>   -4.4607    1.0000 </r>
       <r>   -4.4549    1.0000 </r>
       <r>   -4.4548    1.0000 </r>
       <r>   -4.4548    1.0000 </r>
       <r>   -4.4481    1.0000 </r>
       <r>   -4.4471    1.0000 </r>
       <r>   -4.4469    1.0000 </r>
       <r>   -4.4098    1.0000 </r>
       <r>   -4.4074    1.0000 </r>
       <r>   -4.4064    1.0000 </r>
       <r>   -4.3896    1.0000 </r>
       <r>   -4.3893    1.0000 </r>
       <r>   -4.3507    1.0000 </r>
       <r>   -4.3502    1.0000 </r>
       <r>   -4.3497    1.0000 </r>
       <r>   -4.3381    1.0000 </r>
       <r>   -4.2436    1.0000 </r>
       <r>   -4.2432    1.0000 </r>
       <r>   -4.2302    1.0000 </r>
       <r>   -4.2290    1.0000 </r>
       <r>   -4.2289    1.0000 </r>
       <r>   -4.2201    1.0000 </r>
       <r>   -4.2200    1.0000 </r>
       <r>   -4.2199    1.0000 </r>
       <r>   -4.2178    1.0000 </r>
       <r>   -4.2178    1.0000 </r>
       <r>   -4.2178    1.0000 </r>
       <r>   -4.2145    1.0000 </r>
       <r>   -4.2144    1.0000 </r>
       <r>   -4.2143    1.0000 </r>
       <r>   -4.2124    1.0000 </r>
       <r>   -4.2118    1.0000 </r>
       <r>   -4.2114    1.0000 </r>
       <r>   -4.1798    1.0000 </r>
       <r>   -4.1797    1.0000 </r>
       <r>   -4.1796    1.0000 </r>
       <r>   -4.0979    1.0000 </r>
       <r>   -4.0975    1.0000 </r>
       <r>   -4.0971    1.0000 </r>
       <r>   -4.0804    1.0000 </r>
       <r>   -4.0800    1.0000 </r>
       <r>   -4.0789    1.0000 </r>
       <r>   -4.0779    1.0000 </r>
       <r>   -4.0768    1.0000 </r>
       <r>   -4.0767    1.0000 </r>
       <r>   -4.0574    1.0000 </r>
       <r>   -4.0569    1.0000 </r>
       <r>   -4.0568    1.0000 </r>
       <r>   -4.0446    1.0000 </r>
       <r>   -4.0445    1.0000 </r>
       <r>   -4.0445    1.0000 </r>
       <r>   -4.0173    1.0000 </r>
       <r>   -4.0048    1.0000 </r>
       <r>   -4.0047    1.0000 </r>
       <r>   -4.0046    1.0000 </r>
       <r>   -3.9702    1.0000 </r>
       <r>   -3.9701    1.0000 </r>
       <r>   -3.9387    1.0000 </r>
       <r>   -3.9385    1.0000 </r>
       <r>   -3.9383    1.0000 </r>
       <r>   -3.9299    1.0000 </r>
       <r>   -3.9298    1.0000 </r>
       <r>   -3.9291    1.0000 </r>
       <r>   -3.9102    1.0000 </r>
       <r>   -3.9098    1.0000 </r>
       <r>   -3.9096    1.0000 </r>
       <r>   -3.8811    1.0000 </r>
       <r>   -3.8799    1.0000 </r>
       <r>   -3.8797    1.0000 </r>
       <r>   -3.8779    1.0000 </r>
       <r>   -3.8771    1.0000 </r>
       <r>   -3.8770    1.0000 </r>
       <r>   -3.8324    1.0000 </r>
       <r>   -3.8321    1.0000 </r>
       <r>   -3.8313    1.0000 </r>
       <r>   -3.8312    1.0000 </r>
       <r>   -3.8124    1.0000 </r>
       <r>   -3.8123    1.0000 </r>
       <r>   -3.8123    1.0000 </r>
       <r>   -3.7985    1.0000 </r>
       <r>   -3.7985    1.0000 </r>
       <r>   -3.7984    1.0000 </r>
       <r>   -3.7871    1.0000 </r>
       <r>   -3.7867    1.0000 </r>
       <r>   -3.7863    1.0000 </r>
       <r>   -3.7754    1.0000 </r>
       <r>   -3.7753    1.0000 </r>
       <r>   -3.7751    1.0000 </r>
       <r>   -3.7515    1.0000 </r>
       <r>   -3.7515    1.0000 </r>
       <r>   -3.7507    1.0000 </r>
       <r>   -3.7093    1.0000 </r>
       <r>   -3.7092    1.0000 </r>
       <r>   -3.7091    1.0000 </r>
       <r>   -3.7076    1.0000 </r>
       <r>   -3.7073    1.0000 </r>
       <r>   -3.7073    1.0000 </r>
       <r>   -3.6826    1.0000 </r>
       <r>   -3.6825    1.0000 </r>
       <r>   -3.6824    1.0000 </r>
       <r>   -3.6770    1.0000 </r>
       <r>   -3.6769    1.0000 </r>
       <r>   -3.6769    1.0000 </r>
       <r>   -3.6695    1.0000 </r>
       <r>   -3.6686    1.0000 </r>
       <r>   -3.6412    1.0000 </r>
       <r>   -3.6410    1.0000 </r>
       <r>   -3.6407    1.0000 </r>
       <r>   -3.6177    1.0000 </r>
       <r>   -3.6162    1.0000 </r>
       <r>   -3.6161    1.0000 </r>
       <r>   -3.6156    1.0000 </r>
       <r>   -3.6033    1.0000 </r>
       <r>   -3.6030    1.0000 </r>
       <r>   -3.6028    1.0000 </r>
       <r>   -3.6013    1.0000 </r>
       <r>   -3.6010    1.0000 </r>
       <r>   -3.6009    1.0000 </r>
       <r>   -3.5977    1.0000 </r>
       <r>   -3.5976    1.0000 </r>
       <r>   -3.5975    1.0000 </r>
       <r>   -3.5820    1.0000 </r>
       <r>   -3.5816    1.0000 </r>
       <r>   -3.5811    1.0000 </r>
       <r>   -3.5509    1.0000 </r>
       <r>   -3.5506    1.0000 </r>
       <r>   -3.5501    1.0000 </r>
       <r>   -3.5376    1.0000 </r>
       <r>   -3.5305    1.0000 </r>
       <r>   -3.5122    1.0000 </r>
       <r>   -3.5116    1.0000 </r>
       <r>   -3.4491    1.0000 </r>
       <r>   -3.4487    1.0000 </r>
       <r>   -3.4479    1.0000 </r>
       <r>   -3.4422    1.0000 </r>
       <r>   -3.4344    1.0000 </r>
       <r>   -3.4341    1.0000 </r>
       <r>   -3.4340    1.0000 </r>
       <r>   -3.4284    1.0000 </r>
       <r>   -3.4283    1.0000 </r>
       <r>   -3.4283    1.0000 </r>
       <r>   -3.4201    1.0000 </r>
       <r>   -3.4198    1.0000 </r>
       <r>   -3.4193    1.0000 </r>
       <r>   -3.4183    1.0000 </r>
       <r>   -3.4183    1.0000 </r>
       <r>   -3.4160    1.0000 </r>
       <r>   -3.4159    1.0000 </r>
       <r>   -3.4159    1.0000 </r>
       <r>   -3.4102    1.0000 </r>
       <r>   -3.3985    1.0000 </r>
       <r>   -3.3984    1.0000 </r>
       <r>   -3.3980    1.0000 </r>
       <r>   -3.3868    1.0000 </r>
       <r>   -3.3868    1.0000 </r>
       <r>   -3.3753    1.0000 </r>
       <r>   -3.3637    1.0000 </r>
       <r>   -3.3636    1.0000 </r>
       <r>   -3.3623    1.0000 </r>
       <r>   -3.3506    1.0000 </r>
       <r>   -3.3502    1.0000 </r>
       <r>   -3.3499    1.0000 </r>
       <r>   -3.3473    1.0000 </r>
       <r>   -3.3461    1.0000 </r>
       <r>   -3.3369    1.0000 </r>
       <r>   -3.3363    1.0000 </r>
       <r>   -3.3357    1.0000 </r>
       <r>   -3.3155    1.0000 </r>
       <r>   -3.3155    1.0000 </r>
       <r>   -3.3049    1.0000 </r>
       <r>   -3.3048    1.0000 </r>
       <r>   -3.3045    1.0000 </r>
[...]
       <r>   -14.5218     0.0000     8.0000 </r>
       <r>   -14.4276     0.0000     8.0000 </r>
       <r>   -14.3334     0.0000     8.0000 </r>
       <r>   -14.2392     0.0000     8.0000 </r>
       <r>   -14.1451     0.0000     8.0000 </r>
       <r>   -14.0509     0.0000     8.0000 </r>
       <r>   -13.9567     0.0000     8.0000 </r>
       <r>   -13.8625     0.0000     8.0000 </r>
       <r>   -13.7683     0.0000     8.0000 </r>
       <r>   -13.6741     0.0000     8.0000 </r>
       <r>   -13.5799     0.0000     8.0000 </r>
       <r>   -13.4857     0.0000     8.0000 </r>
       <r>   -13.3916     0.0000     8.0000 </r>
       <r>   -13.2974     0.0000     8.0000 </r>
       <r>   -13.2032     0.0000     8.0000 </r>
       <r>   -13.1090     0.0000     8.0000 </r>
       <r>   -13.0148     0.0000     8.0000 </r>
       <r>   -12.9206     0.0000     8.0000 </r>
       <r>   -12.8264     0.0000     8.0000 </r>
       <r>   -12.7322     0.0000     8.0000 </r>
       <r>   -12.6381     0.0000     8.0000 </r>
       <r>   -12.5439     0.0000     8.0000 </r>
       <r>   -12.4497     0.0000     8.0000 </r>
       <r>   -12.3555     0.0000     8.0000 </r>
       <r>   -12.2613     0.0000     8.0000 </r>
       <r>   -12.1671     0.0000     8.0000 </r>
       <r>   -12.0729     0.0000     8.0000 </r>
       <r>   -11.9788     0.0000     8.0000 </r>
       <r>   -11.8846     0.0000     8.0000 </r>
       <r>   -11.7904     0.0000     8.0000 </r>
       <r>   -11.6962     0.0000     8.0000 </r>
       <r>   -11.6020     0.0000     8.0000 </r>
       <r>   -11.5078     0.0000     8.0000 </r>
       <r>   -11.4136     0.0000     8.0000 </r>
       <r>   -11.3194     0.0000     8.0000 </r>
       <r>   -11.2253     0.0000     8.0000 </r>
       <r>   -11.1311     0.0000     8.0000 </r>
       <r>   -11.0369     0.0000     8.0000 </r>
       <r>   -10.9427     0.0000     8.0000 </r>
       <r>   -10.8485     0.0000     8.0000 </r>
       <r>   -10.7543     0.0000     8.0000 </r>
       <r>   -10.6601     0.0000     8.0000 </r>
       <r>   -10.5659     0.0000     8.0000 </r>
       <r>   -10.4718     0.0000     8.0000 </r>
       <r>   -10.3776     0.0000     8.0000 </r>
       <r>   -10.2834     0.0000     8.0000 </r>
       <r>   -10.1892     0.0000     8.0000 </r>
       <r>   -10.0950     0.0000     8.0000 </r>
       <r>   -10.0008     0.0000     8.0000 </r>
       <r>    -9.9066     0.0000     8.0000 </r>
       <r>    -9.8124     0.0000     8.0000 </r>
       <r>    -9.7183     0.0000     8.0000 </r>
       <r>    -9.6241     0.0000     8.0000 </r>
       <r>    -9.5299     0.0204     8.0019 </r>
       <r>    -9.4357     0.9095     8.0876 </r>
       <r>    -9.3415     3.3320     8.4014 </r>
       <r>    -9.2473     4.9490     8.8675 </r>
       <r>    -9.1531     0.2847     8.8944 </r>
       <r>    -9.0590     5.9048     9.4505 </r>
       <r>    -8.9648     6.2853    10.0425 </r>
       <r>    -8.8706     6.4251    10.6477 </r>
       <r>    -8.7764     6.1276    11.2248 </r>
       <r>    -8.6822     0.5823    11.2796 </r>
       <r>    -8.5880    15.7314    12.7613 </r>
       <r>    -8.4938    11.1258    13.8092 </r>
       <r>    -8.3996     6.2234    14.3954 </r>
       <r>    -8.3055     6.1491    14.9746 </r>
       <r>    -8.2113     0.8334    15.0531 </r>
       <r>    -8.1171    13.0709    16.2842 </r>
       <r>    -8.0229    14.5216    17.6519 </r>
       <r>    -7.9287    13.3406    18.9084 </r>
       <r>    -7.8345    19.4973    20.7448 </r>
       <r>    -7.7403     6.8583    21.3908 </r>
       <r>    -7.6461     5.9414    21.9504 </r>
       <r>    -7.5520    13.1462    23.1886 </r>
       <r>    -7.4578    15.8559    24.6820 </r>
       <r>    -7.3636    16.3258    26.2197 </r>
       <r>    -7.2694     8.9353    27.0613 </r>
       <r>    -7.1752    20.5507    28.9969 </r>
       <r>    -7.0810    16.3496    30.5368 </r>
       <r>    -6.9868    13.0286    31.7639 </r>
       <r>    -6.8926    16.9944    33.3646 </r>
       <r>    -6.7985    31.6635    36.3469 </r>
       <r>    -6.7043    15.2467    37.7829 </r>
       <r>    -6.6101    18.2015    39.4973 </r>
       <r>    -6.5159    13.5887    40.7771 </r>
       <r>    -6.4217    24.4606    43.0810 </r>
       <r>    -6.3275    23.5511    45.2992 </r>
       <r>    -6.2333    18.9059    47.0799 </r>
       <r>    -6.1392    46.5549    51.4648 </r>
       <r>    -6.0450    20.9842    53.4412 </r>
       <r>    -5.9508    46.0222    57.7759 </r>
       <r>    -5.8566    20.9191    59.7462 </r>
       <r>    -5.7624    20.8322    61.7084 </r>
       <r>    -5.6682    59.8920    67.3494 </r>
       <r>    -5.5740    86.9450    75.5385 </r>
       <r>    -5.4798    73.8782    82.4969 </r>
       <r>    -5.3857    60.6977    88.2138 </r>
       <r>    -5.2915    95.4582    97.2048 </r>
       <r>    -5.1973    89.4406   105.6289 </r>
       <r>    -5.1031   108.0737   115.8081 </r>
       <r>    -5.0089   119.5297   127.0662 </r>
       <r>    -4.9147   145.4734   140.7679 </r>
       <r>    -4.8205   127.5529   152.7818 </r>
       <r>    -4.7263   126.5764   164.7036 </r>
       <r>    -4.6322   166.9558   180.4287 </r>
       <r>    -4.5380   204.6658   199.7056 </r>
       <r>    -4.4438   241.9105   222.4904 </r>
       <r>    -4.3496   284.8881   249.3232 </r>
       <r>    -4.2554   253.0555   273.1578 </r>
       <r>    -4.1612   219.8534   293.8652 </r>
       <r>    -4.0670   206.2159   313.2880 </r>
       <r>    -3.9728   220.5612   334.0621 </r>
       <r>    -3.8787   272.1625   359.6963 </r>
       <r>    -3.7845   278.6551   385.9420 </r>
       <r>    -3.6903   322.2891   416.2974 </r>
       <r>    -3.5961   318.2535   446.2728 </r>
       <r>    -3.5019   325.5738   476.9377 </r>
       <r>    -3.4077   393.7859   514.0272 </r>
       <r>    -3.3135   477.6872   559.0192 </r>
       <r>    -3.2194   505.9148   606.6698 </r>
       <r>    -3.1252   437.6896   647.8946 </r>
       <r>    -3.0310   451.4666   690.4169 </r>
       <r>    -2.9368   325.7011   721.0937 </r>
       <r>    -2.8426   363.2909   755.3110 </r>
       <r>    -2.7484   346.4887   787.9458 </r>
       <r>    -2.6542   411.0254   826.6591 </r>
       <r>    -2.5600   408.8457   865.1671 </r>
       <r>    -2.4659   389.3366   901.8376 </r>
       <r>    -2.3717   429.5465   942.2953 </r>
       <r>    -2.2775   419.4703   981.8040 </r>
       <r>    -2.1833   441.4248  1023.3805 </r>
       <r>    -2.0891   530.8805  1073.3826 </r>
       <r>    -1.9949   615.9026  1131.3927 </r>
       <r>    -1.9007   432.3404  1172.1136 </r>
       <r>    -1.8065   160.7360  1187.2529 </r>
       <r>    -1.7124    68.9739  1193.7493 </r>
       <r>    -1.6182    52.3281  1198.6780 </r>
       <r>    -1.5240    58.5653  1204.1941 </r>
       <r>    -1.4298    59.5553  1209.8034 </r>
       <r>    -1.3356    89.3579  1218.2198 </r>
       <r>    -1.2414    59.4779  1223.8218 </r>
       <r>    -1.1472    35.6879  1227.1831 </r>
       <r>    -1.0530    11.6879  1228.2840 </r>
       <r>    -0.9589    48.0435  1232.8091 </r>
       <r>    -0.8647    37.8877  1236.3776 </r>
       <r>    -0.7705    43.8858  1240.5111 </r>
       <r>    -0.6763    47.3606  1244.9718 </r>
       <r>    -0.5821    57.7207  1250.4084 </r>
       <r>    -0.4879    20.2117  1252.3121 </r>
       <r>    -0.3937    35.0962  1255.6177 </r>
       <r>    -0.2996    37.4966  1259.1494 </r>
       <r>    -0.2054    41.1500  1263.0252 </r>
       <r>    -0.1112    23.5507  1265.2433 </r>
       <r>    -0.0170    35.2672  1268.5651 </r>
       <r>     0.0772    48.7536  1273.1570 </r>
       <r>     0.1714    42.2352  1277.1350 </r>
       <r>     0.2656    12.8768  1278.3479 </r>
       <r>     0.3598    25.7022  1280.7687 </r>
       <r>     0.4539    43.4446  1284.8606 </r>
       <r>     0.5481    33.9235  1288.0557 </r>
       <r>     0.6423    28.5643  1290.7461 </r>
       <r>     0.7365    54.4737  1295.8769 </r>
       <r>     0.8307    35.1880  1299.1911 </r>
       <r>     0.9249    31.3685  1302.1456 </r>
       <r>     1.0191    29.1478  1304.8910 </r>
       <r>     1.1133    29.1244  1307.6341 </r>
       <r>     1.2074    47.1475  1312.0748 </r>
       <r>     1.3016    19.3619  1313.8984 </r>
       <r>     1.3958    20.2679  1315.8074 </r>
       <r>     1.4900    37.3056  1319.3211 </r>
       <r>     1.5842    32.1623  1322.3504 </r>
       <r>     1.6784    27.8200  1324.9707 </r>
       <r>     1.7726    20.4745  1326.8991 </r>
       <r>     1.8668    41.5995  1330.8173 </r>
       <r>     1.9609    37.1151  1334.3130 </r>
       <r>     2.0551    39.2608  1338.0109 </r>
       <r>     2.1493    24.7010  1340.3374 </r>
       <r>     2.2435    37.8483  1343.9022 </r>
       <r>     2.3377    24.6111  1346.2203 </r>
       <r>     2.4319    22.5138  1348.3408 </r>
       <r>     2.5261    14.6703  1349.7225 </r>
       <r>     2.6202    11.7975  1350.8337 </r>
       <r>     2.7144    19.7986  1352.6985 </r>
       <r>     2.8086    32.6022  1355.7692 </r>
       <r>     2.9028    28.0980  1358.4156 </r>
       <r>     2.9970    27.0715  1360.9654 </r>
       <r>     3.0912    19.4054  1362.7932 </r>
       <r>     3.1854    23.4164  1364.9987 </r>
       <r>     3.2796    21.0197  1366.9785 </r>
       <r>     3.3737     8.8021  1367.8075 </r>
       <r>     3.4679    30.7005  1370.6991 </r>
       <r>     3.5621    31.9262  1373.7061 </r>
       <r>     3.6563    27.8324  1376.3276 </r>
       <r>     3.7505     7.0558  1376.9921 </r>
       <r>     3.8447    21.7601  1379.0417 </r>
       <r>     3.9389    44.5043  1383.2334 </r>
       <r>     4.0331    32.4583  1386.2906 </r>
       <r>     4.1272    42.1640  1390.2619 </r>
       <r>     4.2214    50.8416  1395.0505 </r>
       <r>     4.3156    35.2661  1398.3721 </r>
       <r>     4.4098    18.4347  1400.1084 </r>
       <r>     4.5040    23.1253  1402.2865 </r>
       <r>     4.5982    31.6341  1405.2660 </r>
       <r>     4.6924    37.9982  1408.8450 </r>
       <r>     4.7866    41.0090  1412.7075 </r>
       <r>     4.8807    47.6247  1417.1931 </r>
       <r>     4.9749    38.1661  1420.7879 </r>
       <r>     5.0691    40.1524  1424.5697 </r>
       <r>     5.1633    37.1719  1428.0708 </r>
       <r>     5.2575    28.6445  1430.7688 </r>
       <r>     5.3517    59.5517  1436.3778 </r>
       <r>     5.4459    37.2941  1439.8904 </r>
       <r>     5.5400    54.1801  1444.9935 </r>
       <r>     5.6342    33.8947  1448.1859 </r>
       <r>     5.7284    34.0777  1451.3956 </r>
       <r>     5.8226    33.9603  1454.5942 </r>
       <r>     5.9168    33.0685  1457.7088 </r>
       <r>     6.0110    61.6562  1463.5161 </r>
       <r>     6.1052    54.3223  1468.6325 </r>
       <r>     6.1994    44.4360  1472.8178 </r>
       <r>     6.2935    40.3859  1476.6217 </r>
       <r>     6.3877    36.3270  1480.0432 </r>
       <r>     6.4819    51.2839  1484.8735 </r>
       <r>     6.5761    42.9817  1488.9218 </r>
       <r>     6.6703    35.2000  1492.2372 </r>
       <r>     6.7645    37.1893  1495.7399 </r>
       <r>     6.8587    59.4430  1501.3387 </r>
       <r>     6.9529    48.9123  1505.9456 </r>
       <r>     7.0470    36.6976  1509.4021 </r>
       <r>     7.1412    26.6720  1511.9142 </r>
       <r>     7.2354     0.9107  1512.0000 </r>
       <r>     7.3296     0.0001  1512.0000 </r>
       <r>     7.4238     0.0000  1512.0000 </r>
       <r>     7.5180     0.0000  1512.0000 </r>
       <r>     7.6122     0.0000  1512.0000 </r>
       <r>     7.7064     0.0000  1512.0000 </r>
       <r>     7.8005     0.0000  1512.0000 </r>
       <r>     7.8947     0.0000  1512.0000 </r>
       <r>     7.9889     0.0000  1512.0000 </r>
       <r>     8.0831     0.0000  1512.0000 </r>
       <r>     8.1773     0.0000  1512.0000 </r>
       <r>     8.2715     0.0000  1512.0000 </r>
       <r>     8.3657     0.0000  1512.0000 </r>
      </set>
     </set>
    </array>
   </total>
  </dos>
 </calculation>
 <structure name="finalpos" >
  <crystal>
   <varray name="basis" >
    <v>      10.28518105       0.00000000       0.00000000 </v>
    <v>       5.14259052       8.90722807       0.00000000 </v>
    <v>       0.00000000       0.00000000      27.79016876 </v>
   </varray>
   <i name="volume">   2545.92553775 </i>
   <varray name="rec_basis" >
    <v>       0.09722726      -0.05613419       0.00000000 </v>
    <v>       0.00000000       0.11226837       0.00000000 </v>
    <v>       0.00000000       0.00000000       0.03598395 </v>
   </varray>
  </crystal>
  <varray name="positions" >
   <v>       0.00000000       0.00000000       0.22663990 </v>
   <v>       0.00000000       0.50000000       0.22663990 </v>
   <v>       0.50000000       0.00000000       0.22663990 </v>
   <v>       0.50000000       0.50000000       0.22663990 </v>
   <v>       0.00000000       0.25000000       0.22663990 </v>
   <v>       0.00000000       0.75000000       0.22663990 </v>
   <v>       0.50000000       0.25000000       0.22663990 </v>
   <v>       0.50000000       0.75000000       0.22663990 </v>
   <v>       0.25000000       0.00000000       0.22663990 </v>
   <v>       0.25000000       0.50000000       0.22663990 </v>
   <v>       0.75000000       0.00000000       0.22663990 </v>
   <v>       0.75000000       0.50000000       0.22663990 </v>
   <v>       0.25000000       0.25000000       0.22663990 </v>
   <v>       0.25000000       0.75000000       0.22663990 </v>
   <v>       0.75000000       0.25000000       0.22663990 </v>
   <v>       0.75000000       0.75000000       0.22663990 </v>
   <v>       0.16666666       0.16666666       0.30218653 </v>
   <v>       0.16666666       0.66666666       0.30218653 </v>
   <v>       0.66666666       0.16666666       0.30218653 </v>
   <v>       0.66666666       0.66666666       0.30218653 </v>
   <v>       0.16666666       0.41666666       0.30218653 </v>
   <v>       0.16666666       0.91666666       0.30218653 </v>
   <v>       0.66666666       0.41666666       0.30218653 </v>
   <v>       0.66666666       0.91666666       0.30218653 </v>
   <v>       0.41666666       0.16666666       0.30218653 </v>
   <v>       0.41666666       0.66666666       0.30218653 </v>
   <v>       0.91666666       0.16666666       0.30218653 </v>
   <v>       0.91666666       0.66666666       0.30218653 </v>
   <v>       0.41666666       0.41666666       0.30218653 </v>
   <v>       0.41666666       0.91666666       0.30218653 </v>
   <v>       0.91666666       0.41666666       0.30218653 </v>
   <v>       0.91666666       0.91666666       0.30218653 </v>
   <v>       0.08333333       0.08333333       0.37716320 </v>
   <v>       0.08333333       0.58333333       0.37716320 </v>
   <v>       0.58333333       0.08333333       0.37716320 </v>
   <v>       0.58333333       0.58333333       0.37716320 </v>
   <v>       0.08351614       0.33324190       0.37729758 </v>
   <v>       0.08351614       0.83324190       0.37729758 </v>
   <v>       0.58351614       0.33324190       0.37729758 </v>
   <v>       0.58351614       0.83324190       0.37729758 </v>
   <v>       0.33324190       0.08351614       0.37729758 </v>
   <v>       0.33324190       0.58351614       0.37729758 </v>
   <v>       0.83324190       0.08351614       0.37729758 </v>
   <v>       0.83324190       0.58351614       0.37729758 </v>
   <v>       0.33324190       0.33324190       0.37729758 </v>
   <v>       0.33324190       0.83324190       0.37729758 </v>
   <v>       0.83324190       0.33324190       0.37729758 </v>
   <v>       0.83324190       0.83324190       0.37729758 </v>
   <v>       0.00012997       0.00012997       0.45242342 </v>
   <v>       0.00012997       0.50012997       0.45242342 </v>
   <v>       0.50012997       0.00012997       0.45242342 </v>
   <v>       0.50012997       0.50012997       0.45242342 </v>
   <v>       0.00012997       0.24974005       0.45242342 </v>
   <v>       0.00012997       0.74974005       0.45242342 </v>
   <v>       0.50012997       0.24974005       0.45242342 </v>
   <v>       0.50012997       0.74974005       0.45242342 </v>
   <v>       0.24974005       0.00012997       0.45242342 </v>
   <v>       0.24974005       0.50012997       0.45242342 </v>
   <v>       0.74974005       0.00012997       0.45242342 </v>
   <v>       0.74974005       0.50012997       0.45242342 </v>
   <v>       0.25000000       0.25000000       0.45288750 </v>
   <v>       0.25000000       0.75000000       0.45288750 </v>
   <v>       0.75000000       0.25000000       0.45288750 </v>
   <v>       0.75000000       0.75000000       0.45288750 </v>
   <v>       0.16660598       0.16660598       0.52813907 </v>
   <v>       0.16660598       0.66660598       0.52813907 </v>
   <v>       0.66660598       0.16660598       0.52813907 </v>
   <v>       0.66660598       0.66660598       0.52813907 </v>
   <v>       0.16660598       0.41678801       0.52813907 </v>
   <v>       0.16660598       0.91678801       0.52813907 </v>
   <v>       0.66660598       0.41678801       0.52813907 </v>
   <v>       0.66660598       0.91678801       0.52813907 </v>
   <v>       0.41678801       0.16660598       0.52813907 </v>
   <v>       0.41678801       0.66660598       0.52813907 </v>
   <v>       0.91678801       0.16660598       0.52813907 </v>
   <v>       0.91678801       0.66660598       0.52813907 </v>
   <v>       0.41666666       0.41666666       0.52741939 </v>
   <v>       0.41666666       0.91666666       0.52741939 </v>
   <v>       0.91666666       0.41666666       0.52741939 </v>
   <v>       0.91666666       0.91666666       0.52741939 </v>
   <v>       0.08333333       0.08333333       0.60253339 </v>
   <v>       0.08333333       0.58333333       0.60253339 </v>
   <v>       0.58333333       0.08333333       0.60253339 </v>
   <v>       0.58333333       0.58333333       0.60253339 </v>
   <v>       0.08130935       0.33434529       0.60320464 </v>
   <v>       0.08130935       0.83434529       0.60320464 </v>
   <v>       0.58130935       0.33434529       0.60320464 </v>
   <v>       0.58130935       0.83434529       0.60320464 </v>
   <v>       0.33434529       0.08130935       0.60320464 </v>
   <v>       0.33434529       0.58130935       0.60320464 </v>
   <v>       0.83434529       0.08130935       0.60320464 </v>
   <v>       0.83434529       0.58130935       0.60320464 </v>
   <v>       0.33434529       0.33434529       0.60320464 </v>
   <v>       0.33434529       0.83434529       0.60320464 </v>
   <v>       0.83434529       0.33434529       0.60320464 </v>
   <v>       0.83434529       0.83434529       0.60320464 </v>
   <v>       0.49714648       0.49714648       0.68057248 </v>
   <v>       0.49714648       0.99714648       0.68057248 </v>
   <v>       0.99714648       0.49714648       0.68057248 </v>
   <v>       0.99714648       0.99714648       0.68057248 </v>
   <v>       0.49714648       0.25570704       0.68057248 </v>
   <v>       0.49714648       0.75570704       0.68057248 </v>
   <v>       0.99714648       0.25570704       0.68057248 </v>
   <v>       0.99714648       0.75570704       0.68057248 </v>
   <v>       0.25570704       0.49714648       0.68057248 </v>
   <v>       0.25570704       0.99714648       0.68057248 </v>
   <v>       0.75570704       0.49714648       0.68057248 </v>
   <v>       0.75570704       0.99714648       0.68057248 </v>
   <v>       0.24862500       0.25000000       0.67429982 </v>
   <v>       0.25000000       0.75000000       0.67480871 </v>
   <v>       0.75000000       0.25000000       0.67480871 </v>
   <v>       0.75000000       0.75000000       0.67480871 </v>
   <v>       0.08333333       0.08333333       0.72043888 </v>
   <v>       0.08333333       0.58333333       0.72043888 </v>
   <v>       0.58333333       0.08333333       0.72043888 </v>
   <v>       0.58333333       0.58333333       0.72043888 </v>
  </varray>
 </structure>
</modeling>
