<?xml version="1.0" encoding="ISO-8859-1"?>
<modeling>
 <generator>
  <i name="program" type="string">vasp </i>
  <i name="version" type="string">5.4.4.18Apr17-6-g9f103f2a35  </i>
  <i name="subversion" type="string">(build Feb 09 2021 16:27:36) complex            parallel </i>
  <i name="platform" type="string">IFC15_impi </i>
  <i name="date" type="string">2021 04 29 </i>
  <i name="time" type="string">11:14:27 </i>
 </generator>
 <incar>
  <i type="int" name="ISTART">     0</i>
  <i type="string" name="PREC">a</i>
  <i type="logical" name="ADDGRID"> T  </i>
  <i type="int" name="NELM">   300</i>
  <i type="int" name="NELMIN">     5</i>
  <i type="int" name="IBRION">    -1</i>
  <i name="EDIFF">      0.00000100</i>
  <i name="ENCUT">    500.00000000</i>
  <i type="logical" name="LREAL"> F  </i>
  <i type="int" name="ISMEAR">     0</i>
  <i name="SIGMA">      0.05000000</i>
  <i type="logical" name="LWAVE"> F  </i>
  <i type="logical" name="LCHARG"> F  </i>
  <v type="int" name="KPOINT_BSE">    -1     0     0     0</v>
  <i type="int" name="NELM">   300</i>
 </incar>
 <structure name="primitive_cell" >
  <crystal>
   <varray name="basis" >
    <v>      10.28518105       0.00000000       0.00000000 </v>
    <v>       5.14259052       8.90722807       0.00000000 </v>
    <v>       0.00000000       0.00000000      27.79016876 </v>
   </varray>
   <i name="volume">   2545.92553775 </i>
   <varray name="rec_basis" >
    <v>       0.09722726      -0.05613419       0.00000000 </v>
    <v>       0.00000000       0.11226837       0.00000000 </v>
    <v>       0.00000000       0.00000000       0.03598395 </v>
   </varray>
  </crystal>
  <varray name="positions" >
   <v>       0.00000000       0.00000000       0.22663990 </v>
   <v>       0.16666666      -0.08333334       0.30218653 </v>
   <v>      -0.08333334       0.16666666       0.30218653 </v>
   <v>       0.25000000       0.00000000       0.22663990 </v>
   <v>       0.00000000      -0.25000000       0.22663990 </v>
   <v>       0.25000000      -0.25000000       0.22663990 </v>
   <v>      -0.25000000       0.25000000       0.22663990 </v>
   <v>       0.00000000       0.25000000       0.22663990 </v>
   <v>      -0.25000000       0.00000000       0.22663990 </v>
   <v>      -0.08333334      -0.08333334       0.30218653 </v>
   <v>       0.16666666       0.16666666       0.30218653 </v>
   <v>       0.16666666      -0.33333334       0.30218653 </v>
   <v>      -0.33333334       0.16666666       0.30218653 </v>
   <v>       0.08333333       0.08333333       0.37716320 </v>
   <v>       0.08351614      -0.16675810       0.37729758 </v>
   <v>      -0.16675810       0.08351614       0.37729758 </v>
   <v>       0.41666666      -0.08333334       0.30218653 </v>
   <v>      -0.08333334       0.41666666       0.30218653 </v>
   <v>      -0.33333334       0.41666666       0.30218653 </v>
   <v>       0.41666666      -0.33333334       0.30218653 </v>
   <v>      -0.50000000       0.25000000       0.22663990 </v>
   <v>       0.25000000       0.25000000       0.22663990 </v>
   <v>       0.25000000      -0.50000000       0.22663990 </v>
   <v>      -0.25000000      -0.50000000       0.22663990 </v>
   <v>      -0.25000000      -0.25000000       0.22663990 </v>
   <v>      -0.50000000      -0.25000000       0.22663990 </v>
   <v>      -0.08333334      -0.33333334       0.30218653 </v>
   <v>      -0.33333334      -0.08333334       0.30218653 </v>
   <v>       0.33324190      -0.16675810       0.37729758 </v>
   <v>      -0.16675810       0.33324190       0.37729758 </v>
   <v>      -0.16675810      -0.16675810       0.37729758 </v>
   <v>       0.00000000      -0.50000000       0.22663990 </v>
   <v>      -0.50000000      -0.50000000       0.22663990 </v>
   <v>      -0.50000000       0.00000000       0.22663990 </v>
   <v>      -0.41666667       0.08333333       0.37716320 </v>
   <v>       0.08333333      -0.41666667       0.37716320 </v>
   <v>       0.33324190      -0.41648386       0.37729758 </v>
   <v>      -0.41648386       0.33324190       0.37729758 </v>
   <v>       0.33324190       0.08351614       0.37729758 </v>
   <v>       0.08351614       0.33324190       0.37729758 </v>
   <v>       0.16666666       0.41666666       0.30218653 </v>
   <v>       0.41666666       0.16666666       0.30218653 </v>
   <v>       0.41666666       0.41666666       0.30218653 </v>
   <v>       0.00012997       0.00012997       0.45242342 </v>
   <v>      -0.33333334      -0.33333334       0.30218653 </v>
   <v>       0.00012997       0.24974005       0.45242342 </v>
   <v>       0.24974005       0.00012997       0.45242342 </v>
   <v>      -0.25025995       0.00012997       0.45242342 </v>
   <v>       0.00012997      -0.25025995       0.45242342 </v>
   <v>       0.25000000      -0.25000000       0.45288750 </v>
   <v>      -0.25000000       0.25000000       0.45288750 </v>
   <v>      -0.41666667      -0.41666667       0.37716320 </v>
   <v>      -0.41648386      -0.16675810       0.37729758 </v>
   <v>      -0.16675810      -0.41648386       0.37729758 </v>
   <v>       0.33324190       0.33324190       0.37729758 </v>
   <v>       0.24974005      -0.49987003       0.45242342 </v>
   <v>      -0.49987003       0.24974005       0.45242342 </v>
   <v>      -0.49987003      -0.25025995       0.45242342 </v>
   <v>      -0.25025995      -0.49987003       0.45242342 </v>
   <v>       0.25000000       0.25000000       0.45288750 </v>
   <v>      -0.25000000      -0.25000000       0.45288750 </v>
   <v>       0.00012997      -0.49987003       0.45242342 </v>
   <v>      -0.49987003       0.00012997       0.45242342 </v>
   <v>      -0.49987003      -0.49987003       0.45242342 </v>
   <v>      -0.08333334      -0.08333334      -0.47258061 </v>
   <v>      -0.08321199       0.16660598      -0.47186093 </v>
   <v>       0.16660598      -0.08321199      -0.47186093 </v>
   <v>       0.16660598       0.16660598      -0.47186093 </v>
   <v>      -0.33339402       0.16660598      -0.47186093 </v>
   <v>       0.16660598      -0.33339402      -0.47186093 </v>
   <v>       0.41666666      -0.08333334      -0.47258061 </v>
   <v>      -0.08333334       0.41666666      -0.47258061 </v>
   <v>      -0.33339402      -0.08321199      -0.47186093 </v>
   <v>      -0.08321199      -0.33339402      -0.47186093 </v>
   <v>      -0.33339402       0.41678801      -0.47186093 </v>
   <v>       0.41678801      -0.33339402      -0.47186093 </v>
   <v>       0.41666666       0.41666666      -0.47258061 </v>
   <v>       0.16660598       0.41678801      -0.47186093 </v>
   <v>       0.41678801       0.16660598      -0.47186093 </v>
   <v>      -0.33339402      -0.33339402      -0.47186093 </v>
   <v>       0.08195833       0.08333333      -0.39797550 </v>
   <v>      -0.16565471       0.08130935      -0.39679536 </v>
   <v>       0.08130935      -0.16565471      -0.39679536 </v>
   <v>      -0.16565471      -0.16565471      -0.39679536 </v>
   <v>      -0.16565471       0.33434529      -0.39679536 </v>
   <v>       0.33434529      -0.16565471      -0.39679536 </v>
   <v>      -0.41666667       0.08333333      -0.39746661 </v>
   <v>       0.08333333      -0.41666667      -0.39746661 </v>
   <v>       0.08130935       0.33434529      -0.39679536 </v>
   <v>       0.33434529       0.08130935      -0.39679536 </v>
   <v>       0.33434529      -0.41869065      -0.39679536 </v>
   <v>      -0.41869065       0.33434529      -0.39679536 </v>
   <v>      -0.41666667      -0.41666667      -0.39746661 </v>
   <v>      -0.41869065      -0.16565471      -0.39679536 </v>
   <v>      -0.16565471      -0.41869065      -0.39679536 </v>
   <v>       0.33434529       0.33434529      -0.39679536 </v>
   <v>      -0.00285352      -0.00285352      -0.31942752 </v>
   <v>       0.25000000      -0.25000000      -0.32519129 </v>
   <v>      -0.25000000       0.25000000      -0.32519129 </v>
   <v>      -0.24429296      -0.00285352      -0.31942752 </v>
   <v>      -0.00285352      -0.24429296      -0.31942752 </v>
   <v>      -0.00285352       0.25570704      -0.31942752 </v>
   <v>       0.25570704      -0.00285352      -0.31942752 </v>
   <v>       0.25000000       0.25000000      -0.32519129 </v>
   <v>      -0.25000000      -0.25000000      -0.32519129 </v>
   <v>       0.49714648      -0.24429296      -0.31942752 </v>
   <v>      -0.24429296       0.49714648      -0.31942752 </v>
   <v>       0.25570704       0.49714648      -0.31942752 </v>
   <v>       0.49714648       0.25570704      -0.31942752 </v>
   <v>      -0.00285352       0.49714648      -0.31942752 </v>
   <v>       0.49714648      -0.00285352      -0.31942752 </v>
   <v>       0.49714648       0.49714648      -0.31942752 </v>
   <v>       0.08333333       0.08333333      -0.27956112 </v>
   <v>      -0.41666667       0.08333333      -0.27956112 </v>
   <v>       0.08333333      -0.41666667      -0.27956112 </v>
   <v>      -0.41666667      -0.41666667      -0.27956112 </v>
  </varray>
 </structure>
 <varray name="primitive_index" >
  <v type="int" >        1 </v>
  <v type="int" >       22 </v>
  <v type="int" >       27 </v>
  <v type="int" >        9 </v>
  <v type="int" >        6 </v>
  <v type="int" >       14 </v>
  <v type="int" >       15 </v>
  <v type="int" >        5 </v>
  <v type="int" >       11 </v>
  <v type="int" >       32 </v>
  <v type="int" >       17 </v>
  <v type="int" >       18 </v>
  <v type="int" >       19 </v>
  <v type="int" >       33 </v>
  <v type="int" >       38 </v>
  <v type="int" >       43 </v>
  <v type="int" >       30 </v>
  <v type="int" >       31 </v>
  <v type="int" >       23 </v>
  <v type="int" >       26 </v>
  <v type="int" >        7 </v>
  <v type="int" >       13 </v>
  <v type="int" >       10 </v>
  <v type="int" >       12 </v>
  <v type="int" >       16 </v>
  <v type="int" >        8 </v>
  <v type="int" >       28 </v>
  <v type="int" >       24 </v>
  <v type="int" >       46 </v>
  <v type="int" >       47 </v>
  <v type="int" >       48 </v>
  <v type="int" >        2 </v>
  <v type="int" >        4 </v>
  <v type="int" >        3 </v>
  <v type="int" >       35 </v>
  <v type="int" >       34 </v>
  <v type="int" >       42 </v>
  <v type="int" >       39 </v>
  <v type="int" >       41 </v>
  <v type="int" >       37 </v>
  <v type="int" >       21 </v>
  <v type="int" >       25 </v>
  <v type="int" >       29 </v>
  <v type="int" >       49 </v>
  <v type="int" >       20 </v>
  <v type="int" >       53 </v>
  <v type="int" >       57 </v>
  <v type="int" >       59 </v>
  <v type="int" >       54 </v>
  <v type="int" >       62 </v>
  <v type="int" >       63 </v>
  <v type="int" >       36 </v>
  <v type="int" >       40 </v>
  <v type="int" >       44 </v>
  <v type="int" >       45 </v>
  <v type="int" >       58 </v>
  <v type="int" >       55 </v>
  <v type="int" >       56 </v>
  <v type="int" >       60 </v>
  <v type="int" >       61 </v>
  <v type="int" >       64 </v>
  <v type="int" >       50 </v>
  <v type="int" >       51 </v>
  <v type="int" >       52 </v>
  <v type="int" >       80 </v>
  <v type="int" >       75 </v>
  <v type="int" >       70 </v>
  <v type="int" >       65 </v>
  <v type="int" >       67 </v>
  <v type="int" >       66 </v>
  <v type="int" >       78 </v>
  <v type="int" >       79 </v>
  <v type="int" >       72 </v>
  <v type="int" >       76 </v>
  <v type="int" >       71 </v>
  <v type="int" >       74 </v>
  <v type="int" >       77 </v>
  <v type="int" >       69 </v>
  <v type="int" >       73 </v>
  <v type="int" >       68 </v>
  <v type="int" >       81 </v>
  <v type="int" >       91 </v>
  <v type="int" >       86 </v>
  <v type="int" >       96 </v>
  <v type="int" >       95 </v>
  <v type="int" >       94 </v>
  <v type="int" >       83 </v>
  <v type="int" >       82 </v>
  <v type="int" >       85 </v>
  <v type="int" >       89 </v>
  <v type="int" >       90 </v>
  <v type="int" >       87 </v>
  <v type="int" >       84 </v>
  <v type="int" >       88 </v>
  <v type="int" >       92 </v>
  <v type="int" >       93 </v>
  <v type="int" >      100 </v>
  <v type="int" >      110 </v>
  <v type="int" >      111 </v>
  <v type="int" >      108 </v>
  <v type="int" >      104 </v>
  <v type="int" >      103 </v>
  <v type="int" >      106 </v>
  <v type="int" >      109 </v>
  <v type="int" >      112 </v>
  <v type="int" >      102 </v>
  <v type="int" >      107 </v>
  <v type="int" >      105 </v>
  <v type="int" >      101 </v>
  <v type="int" >       99 </v>
  <v type="int" >       98 </v>
  <v type="int" >       97 </v>
  <v type="int" >      113 </v>
  <v type="int" >      115 </v>
  <v type="int" >      114 </v>
  <v type="int" >      116 </v>
 </varray>
 <kpoints>
  <generation param="Gamma">
   <v type="int" name="divisions">       4        4        1 </v>
   <v name="usershift">      0.00000000       0.00000000       0.00000000 </v>
   <v name="genvec1">      0.25000000      -0.00000000       0.00000000 </v>
   <v name="genvec2">      0.00000000       0.25000000       0.00000000 </v>
   <v name="genvec3">      0.00000000       0.00000000       1.00000000 </v>
   <v name="shift">      0.00000000       0.00000000       0.00000000 </v>
  </generation>
  <varray name="kpointlist" >
   <v>       0.00000000       0.00000000       0.00000000 </v>
   <v>       0.25000000      -0.00000000       0.00000000 </v>
   <v>       0.50000000      -0.00000000       0.00000000 </v>
   <v>       0.00000000       0.25000000       0.00000000 </v>
   <v>       0.25000000       0.25000000       0.00000000 </v>
   <v>       0.50000000       0.25000000       0.00000000 </v>
   <v>      -0.25000000       0.25000000       0.00000000 </v>
   <v>       0.00000000       0.50000000       0.00000000 </v>
   <v>       0.25000000       0.50000000       0.00000000 </v>
   <v>       0.50000000       0.50000000       0.00000000 </v>
  </varray>
  <varray name="weights" >
   <v>       0.06250000 </v>
   <v>       0.12500000 </v>
   <v>       0.06250000 </v>
   <v>       0.12500000 </v>
   <v>       0.12500000 </v>
   <v>       0.12500000 </v>
   <v>       0.12500000 </v>
   <v>       0.06250000 </v>
   <v>       0.12500000 </v>
   <v>       0.06250000 </v>
  </varray>
 </kpoints>
 <parameters>
  <separator name="general" >
   <i type="string" name="SYSTEM">unknown system</i>
   <i type="logical" name="LCOMPAT"> F  </i>
  </separator>
  <separator name="electronic" >
   <i type="string" name="PREC">a</i>
   <i name="ENMAX">    500.00000000</i>
   <i name="ENAUG">    605.39200000</i>
   <i name="EDIFF">      0.00000100</i>
   <i type="int" name="IALGO">    38</i>
   <i type="int" name="IWAVPR">    10</i>
   <i type="int" name="NBANDS">   756</i>
   <i name="NELECT">   1256.00000000</i>
   <i type="int" name="TURBO">     0</i>
   <i type="int" name="IRESTART">     0</i>
   <i type="int" name="NREBOOT">     0</i>
   <i type="int" name="NMIN">     0</i>
   <i name="EREF">      0.00000000</i>
   <separator name="electronic smearing" >
    <i type="int" name="ISMEAR">     0</i>
    <i name="SIGMA">      0.05000000</i>
    <i name="KSPACING">      0.50000000</i>
    <i type="logical" name="KGAMMA"> T  </i>
   </separator>
   <separator name="electronic projectors" >
    <i type="logical" name="LREAL"> F  </i>
    <v name="ROPT">      0.00000000      0.00000000</v>
    <i type="int" name="LMAXPAW">  -100</i>
    <i type="int" name="LMAXMIX">     2</i>
    <i type="logical" name="NLSPLINE"> F  </i>
   </separator>
   <separator name="electronic startup" >
    <i type="int" name="ISTART">     0</i>
    <i type="int" name="ICHARG">     2</i>
    <i type="int" name="INIWAV">     1</i>
   </separator>
   <separator name="electronic spin" >
    <i type="int" name="ISPIN">     1</i>
    <i type="logical" name="LNONCOLLINEAR"> F  </i>
    <v name="MAGMOM">      1.00000000      1.00000000      1.00000000      1.00000000      1.00000000      1.00000000      1.00000000      1.00000000      1.00000000      1.00000000      1.00000000      1.00000000      1.00000000      1.00000000      1.00000000      1.00000000      1.00000000      1.00000000      1.00000000      1.00000000
      1.00000000      1.00000000      1.00000000      1.00000000      1.00000000      1.00000000      1.00000000      1.00000000      1.00000000      1.00000000      1.00000000      1.00000000      1.00000000      1.00000000      1.00000000      1.00000000      1.00000000      1.00000000      1.00000000      1.00000000
      1.00000000      1.00000000      1.00000000      1.00000000      1.00000000      1.00000000      1.00000000      1.00000000      1.00000000      1.00000000      1.00000000      1.00000000      1.00000000      1.00000000      1.00000000      1.00000000      1.00000000      1.00000000      1.00000000      1.00000000
      1.00000000      1.00000000      1.00000000      1.00000000      1.00000000      1.00000000      1.00000000      1.00000000      1.00000000      1.00000000      1.00000000      1.00000000      1.00000000      1.00000000      1.00000000      1.00000000      1.00000000      1.00000000      1.00000000      1.00000000
      1.00000000      1.00000000      1.00000000      1.00000000      1.00000000      1.00000000      1.00000000      1.00000000      1.00000000      1.00000000      1.00000000      1.00000000      1.00000000      1.00000000      1.00000000      1.00000000      1.00000000      1.00000000      1.00000000      1.00000000
      1.00000000      1.00000000      1.00000000      1.00000000      1.00000000      1.00000000      1.00000000      1.00000000      1.00000000      1.00000000      1.00000000      1.00000000      1.00000000      1.00000000      1.00000000      1.00000000</v>
    <i name="NUPDOWN">     -1.00000000</i>
    <i type="logical" name="LSORBIT"> F  </i>
    <v name="SAXIS">      0.00000000      0.00000000      1.00000000</v>
    <i type="logical" name="LSPIRAL"> F  </i>
    <v name="QSPIRAL">      0.00000000      0.00000000      0.00000000</v>
    <i type="logical" name="LZEROZ"> F  </i>
   </separator>
   <separator name="electronic exchange-correlation" >
    <i type="logical" name="LASPH"> F  </i>
    <i type="logical" name="LMETAGGA"> F  </i>
   </separator>
   <separator name="electronic convergence" >
    <i type="int" name="NELM">   300</i>
    <i type="int" name="NELMDL">    -5</i>
    <i type="int" name="NELMIN">     5</i>
    <i name="ENINI">    500.00000000</i>
    <separator name="electronic convergence detail" >
     <i type="logical" name="LDIAG"> T  </i>
     <i type="logical" name="LSUBROT"> F  </i>
     <i name="WEIMIN">      0.00000000</i>
     <i name="EBREAK">      0.00000000</i>
     <i name="DEPER">      0.30000000</i>
     <i type="int" name="NRMM">     4</i>
     <i name="TIME">      0.40000000</i>
    </separator>
   </separator>
   <separator name="electronic mixer" >
    <i name="AMIX">      0.40000000</i>
    <i name="BMIX">      1.00000000</i>
    <i name="AMIN">      0.10000000</i>
    <i name="AMIX_MAG">      1.60000000</i>
    <i name="BMIX_MAG">      1.00000000</i>
    <separator name="electronic mixer details" >
     <i type="int" name="IMIX">     4</i>
     <i type="logical" name="MIXFIRST"> F  </i>
     <i type="int" name="MAXMIX">   -45</i>
     <i name="WC">    100.00000000</i>
     <i type="int" name="INIMIX">     1</i>
     <i type="int" name="MIXPRE">     1</i>
     <i type="int" name="MREMOVE">     5</i>
    </separator>
   </separator>
   <separator name="electronic dipolcorrection" >
    <i type="logical" name="LDIPOL"> F  </i>
    <i type="logical" name="LMONO"> F  </i>
    <i type="int" name="IDIPOL">     0</i>
    <i name="EPSILON">      1.00000000</i>
    <v name="DIPOL">   -100.00000000   -100.00000000   -100.00000000</v>
    <i name="EFIELD">      0.00000000</i>
   </separator>
  </separator>
  <separator name="grids" >
   <i type="int" name="NGX">    80</i>
   <i type="int" name="NGY">    80</i>
   <i type="int" name="NGZ">   210</i>
   <i type="int" name="NGXF">   160</i>
   <i type="int" name="NGYF">   160</i>
   <i type="int" name="NGZF">   420</i>
   <i type="logical" name="ADDGRID"> T  </i>
  </separator>
  <separator name="ionic" >
   <i type="int" name="NSW">     0</i>
   <i type="int" name="IBRION">    -1</i>
   <i type="int" name="MDALGO">     0</i>
   <i type="int" name="ISIF">     2</i>
   <i name="PSTRESS">      0.00000000</i>
   <i name="EDIFFG">      0.00001000</i>
   <i type="int" name="NFREE">     0</i>
   <i name="POTIM">      0.50000000</i>
   <i name="SMASS">     -3.00000000</i>
   <i name="SCALEE">      1.00000000</i>
  </separator>
  <separator name="ionic md" >
   <i name="TEBEG">      0.00010000</i>
   <i name="TEEND">      0.00010000</i>
   <i type="int" name="NBLOCK">     1</i>
   <i type="int" name="KBLOCK">     1</i>
   <i type="int" name="NPACO">   256</i>
   <i name="APACO">     16.00000000</i>
  </separator>
  <separator name="symmetry" >
   <i type="int" name="ISYM">     2</i>
   <i name="SYMPREC">      0.00001000</i>
  </separator>
  <separator name="dos" >
   <i type="int" name="LORBIT">     0</i>
   <v name="RWIGS">     -1.00000000     -1.00000000</v>
   <i type="int" name="NEDOS">   301</i>
   <i name="EMIN">     10.00000000</i>
   <i name="EMAX">    -10.00000000</i>
   <i name="EFERMI">      0.00000000</i>
  </separator>
  <separator name="writing" >
   <i type="int" name="NWRITE">     2</i>
   <i type="logical" name="LWAVE"> F  </i>
   <i type="logical" name="LDOWNSAMPLE"> F  </i>
   <i type="logical" name="LCHARG"> F  </i>
   <i type="logical" name="LPARD"> F  </i>
   <i type="logical" name="LVTOT"> F  </i>
   <i type="logical" name="LVHAR"> F  </i>
   <i type="logical" name="LELF"> F  </i>
   <i type="logical" name="LOPTICS"> F  </i>
   <v name="STM">      0.00000000      0.00000000      0.00000000      0.00000000      0.00000000      0.00000000      0.00000000</v>
  </separator>
  <separator name="performance" >
   <i type="int" name="NPAR">     4</i>
   <i type="int" name="NSIM">     4</i>
   <i type="int" name="NBLK">    -1</i>
   <i type="logical" name="LPLANE"> T  </i>
   <i type="logical" name="LSCALAPACK"> F  </i>
   <i type="logical" name="LSCAAWARE"> F  </i>
   <i type="logical" name="LSCALU"> F  </i>
   <i type="logical" name="LASYNC"> F  </i>
   <i type="logical" name="LORBITALREAL"> F  </i>
  </separator>
  <separator name="miscellaneous" >
   <i type="int" name="IDIOT">     3</i>
   <i type="int" name="ISPECIAL">     0</i>
   <i type="logical" name="LMUSIC"> F  </i>
   <v name="POMASS">     63.54600000     16.00000000</v>
   <v name="DARWINR">      0.00000000      0.00000000</v>
   <v name="DARWINV">      1.00000000      1.00000000</v>
   <i type="logical" name="LCORR"> T  </i>
  </separator>
  <i type="logical" name="GGA_COMPAT"> T  </i>
  <i type="logical" name="LBERRY"> F  </i>
  <i type="int" name="ICORELEVEL">     0</i>
  <i type="logical" name="LDAU"> F  </i>
  <i type="int" name="I_CONSTRAINED_M">     0</i>
  <separator name="electronic exchange-correlation" >
   <i type="string" name="GGA">--</i>
   <i type="int" name="VOSKOWN">     0</i>
   <i type="logical" name="LHFCALC"> F  </i>
   <i type="string" name="PRECFOCK"></i>
   <i type="logical" name="LSYMGRAD"> F  </i>
   <i type="logical" name="LHFONE"> F  </i>
   <i type="logical" name="LRHFCALC"> F  </i>
   <i type="logical" name="LTHOMAS"> F  </i>
   <i type="logical" name="LMODELHF"> F  </i>
   <i name="ENCUT4O">     -1.00000000</i>
   <i type="int" name="EXXOEP">     0</i>
   <i type="int" name="FOURORBIT">     0</i>
   <i name="AEXX">      0.00000000</i>
   <i name="HFALPHA">      0.00000000</i>
   <i name="MCALPHA">      0.00000000</i>
   <i name="ALDAX">      1.00000000</i>
   <i name="AGGAX">      1.00000000</i>
   <i name="ALDAC">      1.00000000</i>
   <i name="AGGAC">      1.00000000</i>
   <i type="int" name="NKREDX">     1</i>
   <i type="int" name="NKREDY">     1</i>
   <i type="int" name="NKREDZ">     1</i>
   <i type="logical" name="SHIFTRED"> F  </i>
   <i type="logical" name="ODDONLY"> F  </i>
   <i type="logical" name="EVENONLY"> F  </i>
   <i type="int" name="LMAXFOCK">     0</i>
   <i type="int" name="NMAXFOCKAE">     0</i>
   <i type="logical" name="LFOCKAEDFT"> F  </i>
   <i name="HFSCREEN">      0.00000000</i>
   <i name="HFSCREENC">      0.00000000</i>
   <i type="int" name="NBANDSGWLOW">     0</i>
  </separator>
  <separator name="vdW DFT" >
   <i type="logical" name="LUSE_VDW"> F  </i>
   <i name="Zab_VDW">     -0.84910000</i>
   <i name="PARAM1">      0.12340000</i>
   <i name="PARAM2">      1.00000000</i>
   <i name="PARAM3">      0.00000000</i>
  </separator>
  <separator name="model GW" >
   <i type="int" name="MODEL_GW">     0</i>
   <i name="MODEL_EPS0">     13.16858037</i>
   <i name="MODEL_ALPHA">      1.00000000</i>
  </separator>
  <separator name="linear response parameters" >
   <i type="logical" name="LEPSILON"> F  </i>
   <i type="logical" name="LRPA"> F  </i>
   <i type="logical" name="LNABLA"> F  </i>
   <i type="logical" name="LVEL"> F  </i>
   <i type="int" name="KINTER">     0</i>
   <i name="CSHIFT">      0.10000000</i>
   <i name="OMEGAMAX">     -1.00000000</i>
   <i name="DEG_THRESHOLD">      0.00200000</i>
   <i name="RTIME">     -0.10000000</i>
   <i name="WPLASMAI">      0.00000000</i>
   <v name="DFIELD">      0.00000000      0.00000000      0.00000000</v>
   <v name="WPLASMA">      0.00000000      0.00000000      0.00000000      0.00000000      0.00000000      0.00000000      0.00000000      0.00000000      0.00000000</v>
  </separator>
  <separator name="orbital magnetization" >
   <i type="logical" name="NUCIND"> F  </i>
   <v name="MAGPOS">      0.00000000      0.00000000      0.00000000</v>
   <i type="logical" name="LNICSALL"> T  </i>
   <i type="logical" name="ORBITALMAG"> F  </i>
   <i type="logical" name="LMAGBLOCH"> F  </i>
   <i type="logical" name="LCHIMAG"> F  </i>
   <i type="logical" name="LGAUGE"> T  </i>
   <i type="int" name="MAGATOM">     0</i>
   <v name="MAGDIPOL">      0.00000000      0.00000000      0.00000000</v>
   <v name="AVECCONST">      0.00000000      0.00000000      0.00000000</v>
  </separator>
  <separator name="response functions" >
   <i type="logical" name="LADDER"> F  </i>
   <i type="logical" name="LRPAFORCE"> F  </i>
   <i type="logical" name="LFXC"> F  </i>
   <i type="logical" name="LHARTREE"> T  </i>
   <i type="int" name="IBSE">     0</i>
   <v type="int" name="KPOINT">    -1     0     0     0</v>
   <i type="logical" name="LTCTE"> F  </i>
   <i type="logical" name="LTETE"> F  </i>
   <i type="logical" name="LTRIPLET"> F  </i>
   <i type="logical" name="LFXCEPS"> F  </i>
   <i type="logical" name="LFXHEG"> F  </i>
   <i type="int" name="NATURALO">     2</i>
   <i type="logical" name="L2ORDER"> F  </i>
   <i type="logical" name="LMP2LT"> F  </i>
   <i type="logical" name="LUSEW"> F  </i>
   <i name="ENCUTGW">     -2.00000000</i>
   <i name="ENCUTGWSOFT">     -2.00000000</i>
   <i name="ENCUTLF">     -1.00000000</i>
   <i type="int" name="LMAXMP2">    -1</i>
   <i name="SCISSOR">      0.00000000</i>
   <i type="int" name="NOMEGA">     0</i>
   <i type="int" name="NOMEGAR">     0</i>
   <i type="int" name="NBANDSGW">    -1</i>
   <i type="int" name="NBANDSO">    -1</i>
   <i type="int" name="NBANDSV">    -1</i>
   <i type="int" name="NELM">   300</i>
   <i type="int" name="NELMHF">     1</i>
   <i type="int" name="DIM">     3</i>
   <i type="int" name="ANTIRES">     0</i>
   <i name="OMEGAMAX">    -30.00000000</i>
   <i name="OMEGAMIN">    -30.00000000</i>
   <i name="OMEGATL">   -200.00000000</i>
   <i type="int" name="OMEGAGRID">   140</i>
   <i name="CSHIFT">     -0.10000000</i>
   <i type="logical" name="SELFENERGY"> F  </i>
   <i type="logical" name="LSPECTRAL"> F  </i>
   <i type="logical" name="LSPECTRALGW"> F  </i>
   <i type="logical" name="LSINGLES"> F  </i>
   <i type="logical" name="LFERMIGW"> F  </i>
   <i type="logical" name="ODDONLYGW"> F  </i>
   <i type="logical" name="EVENONLYGW"> F  </i>
   <i type="int" name="NKREDLFX">     1</i>
   <i type="int" name="NKREDLFY">     1</i>
   <i type="int" name="NKREDLFZ">     1</i>
   <i type="int" name="MAXMEM">  2800</i>
   <i type="int" name="TELESCOPE">     0</i>
   <i type="int" name="TAUPAR">     1</i>
   <i type="int" name="OMEGAPAR">    -1</i>
   <i name="LAMBDA">      1.00000000</i>
  </separator>
  <separator name="External order field" >
   <i name="OFIELD_KAPPA">      0.00000000</i>
   <v name="OFIELD_K">      0.00000000      0.00000000      0.00000000</v>
   <i name="OFIELD_Q6_NEAR">      0.00000000</i>
   <i name="OFIELD_Q6_FAR">      0.00000000</i>
   <i name="OFIELD_A">      0.00000000</i>
  </separator>
 </parameters>
 <atominfo>
  <atoms>     116 </atoms>
  <types>       2 </types>
  <array name="atoms" >
   <dimension dim="1">ion</dimension>
   <field type="string">element</field>
   <field type="int">atomtype</field>
   <set>
    <rc><c>Cu</c><c>   1</c></rc>
    <rc><c>Cu</c><c>   1</c></rc>
    <rc><c>Cu</c><c>   1</c></rc>
    <rc><c>Cu</c><c>   1</c></rc>
    <rc><c>Cu</c><c>   1</c></rc>
    <rc><c>Cu</c><c>   1</c></rc>
    <rc><c>Cu</c><c>   1</c></rc>
    <rc><c>Cu</c><c>   1</c></rc>
    <rc><c>Cu</c><c>   1</c></rc>
    <rc><c>Cu</c><c>   1</c></rc>
    <rc><c>Cu</c><c>   1</c></rc>
    <rc><c>Cu</c><c>   1</c></rc>
    <rc><c>Cu</c><c>   1</c></rc>
    <rc><c>Cu</c><c>   1</c></rc>
    <rc><c>Cu</c><c>   1</c></rc>
    <rc><c>Cu</c><c>   1</c></rc>
    <rc><c>Cu</c><c>   1</c></rc>
    <rc><c>Cu</c><c>   1</c></rc>
    <rc><c>Cu</c><c>   1</c></rc>
    <rc><c>Cu</c><c>   1</c></rc>
    <rc><c>Cu</c><c>   1</c></rc>
    <rc><c>Cu</c><c>   1</c></rc>
    <rc><c>Cu</c><c>   1</c></rc>
    <rc><c>Cu</c><c>   1</c></rc>
    <rc><c>Cu</c><c>   1</c></rc>
    <rc><c>Cu</c><c>   1</c></rc>
    <rc><c>Cu</c><c>   1</c></rc>
    <rc><c>Cu</c><c>   1</c></rc>
    <rc><c>Cu</c><c>   1</c></rc>
    <rc><c>Cu</c><c>   1</c></rc>
    <rc><c>Cu</c><c>   1</c></rc>
    <rc><c>Cu</c><c>   1</c></rc>
    <rc><c>Cu</c><c>   1</c></rc>
    <rc><c>Cu</c><c>   1</c></rc>
    <rc><c>Cu</c><c>   1</c></rc>
    <rc><c>Cu</c><c>   1</c></rc>
    <rc><c>Cu</c><c>   1</c></rc>
    <rc><c>Cu</c><c>   1</c></rc>
    <rc><c>Cu</c><c>   1</c></rc>
    <rc><c>Cu</c><c>   1</c></rc>
    <rc><c>Cu</c><c>   1</c></rc>
    <rc><c>Cu</c><c>   1</c></rc>
    <rc><c>Cu</c><c>   1</c></rc>
    <rc><c>Cu</c><c>   1</c></rc>
    <rc><c>Cu</c><c>   1</c></rc>
    <rc><c>Cu</c><c>   1</c></rc>
    <rc><c>Cu</c><c>   1</c></rc>
    <rc><c>Cu</c><c>   1</c></rc>
    <rc><c>Cu</c><c>   1</c></rc>
    <rc><c>Cu</c><c>   1</c></rc>
    <rc><c>Cu</c><c>   1</c></rc>
    <rc><c>Cu</c><c>   1</c></rc>
    <rc><c>Cu</c><c>   1</c></rc>
    <rc><c>Cu</c><c>   1</c></rc>
    <rc><c>Cu</c><c>   1</c></rc>
    <rc><c>Cu</c><c>   1</c></rc>
    <rc><c>Cu</c><c>   1</c></rc>
    <rc><c>Cu</c><c>   1</c></rc>
    <rc><c>Cu</c><c>   1</c></rc>
    <rc><c>Cu</c><c>   1</c></rc>
    <rc><c>Cu</c><c>   1</c></rc>
    <rc><c>Cu</c><c>   1</c></rc>
    <rc><c>Cu</c><c>   1</c></rc>
    <rc><c>Cu</c><c>   1</c></rc>
    <rc><c>Cu</c><c>   1</c></rc>
    <rc><c>Cu</c><c>   1</c></rc>
    <rc><c>Cu</c><c>   1</c></rc>
    <rc><c>Cu</c><c>   1</c></rc>
    <rc><c>Cu</c><c>   1</c></rc>
    <rc><c>Cu</c><c>   1</c></rc>
    <rc><c>Cu</c><c>   1</c></rc>
    <rc><c>Cu</c><c>   1</c></rc>
    <rc><c>Cu</c><c>   1</c></rc>
    <rc><c>Cu</c><c>   1</c></rc>
    <rc><c>Cu</c><c>   1</c></rc>
    <rc><c>Cu</c><c>   1</c></rc>
    <rc><c>Cu</c><c>   1</c></rc>
    <rc><c>Cu</c><c>   1</c></rc>
    <rc><c>Cu</c><c>   1</c></rc>
    <rc><c>Cu</c><c>   1</c></rc>
    <rc><c>Cu</c><c>   1</c></rc>
    <rc><c>Cu</c><c>   1</c></rc>
    <rc><c>Cu</c><c>   1</c></rc>
    <rc><c>Cu</c><c>   1</c></rc>
    <rc><c>Cu</c><c>   1</c></rc>
    <rc><c>Cu</c><c>   1</c></rc>
    <rc><c>Cu</c><c>   1</c></rc>
    <rc><c>Cu</c><c>   1</c></rc>
    <rc><c>Cu</c><c>   1</c></rc>
    <rc><c>Cu</c><c>   1</c></rc>
    <rc><c>Cu</c><c>   1</c></rc>
    <rc><c>Cu</c><c>   1</c></rc>
    <rc><c>Cu</c><c>   1</c></rc>
    <rc><c>Cu</c><c>   1</c></rc>
    <rc><c>Cu</c><c>   1</c></rc>
    <rc><c>Cu</c><c>   1</c></rc>
    <rc><c>Cu</c><c>   1</c></rc>
    <rc><c>Cu</c><c>   1</c></rc>
    <rc><c>Cu</c><c>   1</c></rc>
    <rc><c>Cu</c><c>   1</c></rc>
    <rc><c>Cu</c><c>   1</c></rc>
    <rc><c>Cu</c><c>   1</c></rc>
    <rc><c>Cu</c><c>   1</c></rc>
    <rc><c>Cu</c><c>   1</c></rc>
    <rc><c>Cu</c><c>   1</c></rc>
    <rc><c>Cu</c><c>   1</c></rc>
    <rc><c>Cu</c><c>   1</c></rc>
    <rc><c>Cu</c><c>   1</c></rc>
    <rc><c>Cu</c><c>   1</c></rc>
    <rc><c>Cu</c><c>   1</c></rc>
    <rc><c>Cu</c><c>   1</c></rc>
    <rc><c>Cu</c><c>   1</c></rc>
    <rc><c>O </c><c>   2</c></rc>
    <rc><c>O </c><c>   2</c></rc>
    <rc><c>O </c><c>   2</c></rc>
    <rc><c>O </c><c>   2</c></rc>
   </set>
  </array>
  <array name="atomtypes" >
   <dimension dim="1">type</dimension>
   <field type="int">atomspertype</field>
   <field type="string">element</field>
   <field>mass</field>
   <field>valence</field>
   <field type="string">pseudopotential</field>
   <set>
    <rc><c> 112</c><c>Cu</c><c>     63.54600000</c><c>     11.00000000</c><c> PAW_PBE Cu 05Jan2001                   </c></rc>
    <rc><c>   4</c><c>O </c><c>     16.00000000</c><c>      6.00000000</c><c> PAW_PBE O 08Apr2002                    </c></rc>
   </set>
  </array>
 </atominfo>
 <structure name="initialpos" >
  <crystal>
   <varray name="basis" >
    <v>      10.28518105       0.00000000       0.00000000 </v>
    <v>       5.14259052       8.90722807       0.00000000 </v>
    <v>       0.00000000       0.00000000      27.79016876 </v>
   </varray>
   <i name="volume">   2545.92553775 </i>
   <varray name="rec_basis" >
    <v>       0.09722726      -0.05613419       0.00000000 </v>
    <v>       0.00000000       0.11226837       0.00000000 </v>
    <v>       0.00000000       0.00000000       0.03598395 </v>
   </varray>
  </crystal>
  <varray name="positions" >
   <v>       0.00000000       0.00000000       0.22663990 </v>
   <v>       0.00000000       0.50000000       0.22663990 </v>
   <v>       0.50000000       0.00000000       0.22663990 </v>
   <v>       0.50000000       0.50000000       0.22663990 </v>
   <v>       0.00000000       0.25000000       0.22663990 </v>
   <v>       0.00000000       0.75000000       0.22663990 </v>
   <v>       0.50000000       0.25000000       0.22663990 </v>
   <v>       0.50000000       0.75000000       0.22663990 </v>
   <v>       0.25000000       0.00000000       0.22663990 </v>
   <v>       0.25000000       0.50000000       0.22663990 </v>
   <v>       0.75000000       0.00000000       0.22663990 </v>
   <v>       0.75000000       0.50000000       0.22663990 </v>
   <v>       0.25000000       0.25000000       0.22663990 </v>
   <v>       0.25000000       0.75000000       0.22663990 </v>
   <v>       0.75000000       0.25000000       0.22663990 </v>
   <v>       0.75000000       0.75000000       0.22663990 </v>
   <v>       0.16666666       0.16666666       0.30218653 </v>
   <v>       0.16666666       0.66666666       0.30218653 </v>
   <v>       0.66666666       0.16666666       0.30218653 </v>
   <v>       0.66666666       0.66666666       0.30218653 </v>
   <v>       0.16666666       0.41666666       0.30218653 </v>
   <v>       0.16666666       0.91666666       0.30218653 </v>
   <v>       0.66666666       0.41666666       0.30218653 </v>
   <v>       0.66666666       0.91666666       0.30218653 </v>
   <v>       0.41666666       0.16666666       0.30218653 </v>
   <v>       0.41666666       0.66666666       0.30218653 </v>
   <v>       0.91666666       0.16666666       0.30218653 </v>
   <v>       0.91666666       0.66666666       0.30218653 </v>
   <v>       0.41666666       0.41666666       0.30218653 </v>
   <v>       0.41666666       0.91666666       0.30218653 </v>
   <v>       0.91666666       0.41666666       0.30218653 </v>
   <v>       0.91666666       0.91666666       0.30218653 </v>
   <v>       0.08333333       0.08333333       0.37716320 </v>
   <v>       0.08333333       0.58333333       0.37716320 </v>
   <v>       0.58333333       0.08333333       0.37716320 </v>
   <v>       0.58333333       0.58333333       0.37716320 </v>
   <v>       0.08351614       0.33324190       0.37729758 </v>
   <v>       0.08351614       0.83324190       0.37729758 </v>
   <v>       0.58351614       0.33324190       0.37729758 </v>
   <v>       0.58351614       0.83324190       0.37729758 </v>
   <v>       0.33324190       0.08351614       0.37729758 </v>
   <v>       0.33324190       0.58351614       0.37729758 </v>
   <v>       0.83324190       0.08351614       0.37729758 </v>
   <v>       0.83324190       0.58351614       0.37729758 </v>
   <v>       0.33324190       0.33324190       0.37729758 </v>
   <v>       0.33324190       0.83324190       0.37729758 </v>
   <v>       0.83324190       0.33324190       0.37729758 </v>
   <v>       0.83324190       0.83324190       0.37729758 </v>
   <v>       0.00012997       0.00012997       0.45242342 </v>
   <v>       0.00012997       0.50012997       0.45242342 </v>
   <v>       0.50012997       0.00012997       0.45242342 </v>
   <v>       0.50012997       0.50012997       0.45242342 </v>
   <v>       0.00012997       0.24974005       0.45242342 </v>
   <v>       0.00012997       0.74974005       0.45242342 </v>
   <v>       0.50012997       0.24974005       0.45242342 </v>
   <v>       0.50012997       0.74974005       0.45242342 </v>
   <v>       0.24974005       0.00012997       0.45242342 </v>
   <v>       0.24974005       0.50012997       0.45242342 </v>
   <v>       0.74974005       0.00012997       0.45242342 </v>
   <v>       0.74974005       0.50012997       0.45242342 </v>
   <v>       0.25000000       0.25000000       0.45288750 </v>
   <v>       0.25000000       0.75000000       0.45288750 </v>
   <v>       0.75000000       0.25000000       0.45288750 </v>
   <v>       0.75000000       0.75000000       0.45288750 </v>
   <v>       0.16660598       0.16660598       0.52813907 </v>
   <v>       0.16660598       0.66660598       0.52813907 </v>
   <v>       0.66660598       0.16660598       0.52813907 </v>
   <v>       0.66660598       0.66660598       0.52813907 </v>
   <v>       0.16660598       0.41678801       0.52813907 </v>
   <v>       0.16660598       0.91678801       0.52813907 </v>
   <v>       0.66660598       0.41678801       0.52813907 </v>
   <v>       0.66660598       0.91678801       0.52813907 </v>
   <v>       0.41678801       0.16660598       0.52813907 </v>
   <v>       0.41678801       0.66660598       0.52813907 </v>
   <v>       0.91678801       0.16660598       0.52813907 </v>
   <v>       0.91678801       0.66660598       0.52813907 </v>
   <v>       0.41666666       0.41666666       0.52741939 </v>
   <v>       0.41666666       0.91666666       0.52741939 </v>
   <v>       0.91666666       0.41666666       0.52741939 </v>
   <v>       0.91666666       0.91666666       0.52741939 </v>
   <v>       0.08195833       0.08333333       0.60202450 </v>
   <v>       0.08333333       0.58333333       0.60253339 </v>
   <v>       0.58333333       0.08333333       0.60253339 </v>
   <v>       0.58333333       0.58333333       0.60253339 </v>
   <v>       0.08130935       0.33434529       0.60320464 </v>
   <v>       0.08130935       0.83434529       0.60320464 </v>
   <v>       0.58130935       0.33434529       0.60320464 </v>
   <v>       0.58130935       0.83434529       0.60320464 </v>
   <v>       0.33434529       0.08130935       0.60320464 </v>
   <v>       0.33434529       0.58130935       0.60320464 </v>
   <v>       0.83434529       0.08130935       0.60320464 </v>
   <v>       0.83434529       0.58130935       0.60320464 </v>
   <v>       0.33434529       0.33434529       0.60320464 </v>
   <v>       0.33434529       0.83434529       0.60320464 </v>
   <v>       0.83434529       0.33434529       0.60320464 </v>
   <v>       0.83434529       0.83434529       0.60320464 </v>
   <v>       0.49714648       0.49714648       0.68057248 </v>
   <v>       0.49714648       0.99714648       0.68057248 </v>
   <v>       0.99714648       0.49714648       0.68057248 </v>
   <v>       0.99714648       0.99714648       0.68057248 </v>
   <v>       0.49714648       0.25570704       0.68057248 </v>
   <v>       0.49714648       0.75570704       0.68057248 </v>
   <v>       0.99714648       0.25570704       0.68057248 </v>
   <v>       0.99714648       0.75570704       0.68057248 </v>
   <v>       0.25570704       0.49714648       0.68057248 </v>
   <v>       0.25570704       0.99714648       0.68057248 </v>
   <v>       0.75570704       0.49714648       0.68057248 </v>
   <v>       0.75570704       0.99714648       0.68057248 </v>
   <v>       0.25000000       0.25000000       0.67480871 </v>
   <v>       0.25000000       0.75000000       0.67480871 </v>
   <v>       0.75000000       0.25000000       0.67480871 </v>
   <v>       0.75000000       0.75000000       0.67480871 </v>
   <v>       0.08333333       0.08333333       0.72043888 </v>
   <v>       0.08333333       0.58333333       0.72043888 </v>
   <v>       0.58333333       0.08333333       0.72043888 </v>
   <v>       0.58333333       0.58333333       0.72043888 </v>
  </varray>
 </structure>
 <calculation>
  <scstep>
   <time name="dav">  162.44  162.68</time>
   <time name="total">  163.06  163.32</time>
   <energy>
    <i name="alphaZ">   6463.29446255 </i>
    <i name="ewald"> 664632.10264646 </i>
    <i name="hartreedc">-815386.93419511 </i>
    <i name="XCdc">   5009.43710732 </i>
    <i name="pawpsdc"> 122173.85035501 </i>
    <i name="pawaedc">-138312.01710912 </i>
    <i name="eentropy">     -0.02853663 </i>
    <i name="bandstr">   8852.63144982 </i>
    <i name="atom"> 157518.83071590 </i>
    <i name="e_fr_energy">  10951.16689621 </i>
    <i name="e_wo_entrp">  10951.19543283 </i>
    <i name="e_0_energy">  10951.18116452 </i>
   </energy>
  </scstep>
  <scstep>
   <time name="dav">  167.87  168.23</time>
   <time name="total">  167.89  168.25</time>
   <energy>
    <i name="e_fr_energy">   1074.03960180 </i>
    <i name="e_wo_entrp">   1074.08232205 </i>
    <i name="e_0_energy">   1074.06096193 </i>
   </energy>
  </scstep>
  <scstep>
   <time name="dav">  168.40  168.61</time>
   <time name="total">  168.43  168.63</time>
   <energy>
    <i name="e_fr_energy">   -373.60714360 </i>
    <i name="e_wo_entrp">   -373.54114839 </i>
    <i name="e_0_energy">   -373.57414600 </i>
   </energy>
  </scstep>
  <scstep>
   <time name="dav">  174.95  175.18</time>
   <time name="total">  174.98  175.20</time>
   <energy>
    <i name="e_fr_energy">   -524.82767244 </i>
    <i name="e_wo_entrp">   -524.76443401 </i>
    <i name="e_0_energy">   -524.79605322 </i>
   </energy>
  </scstep>
  <scstep>
   <time name="dav">  165.55  165.73</time>
   <time name="total">  171.95  172.14</time>
   <energy>
    <i name="e_fr_energy">   -530.86609561 </i>
    <i name="e_wo_entrp">   -530.80279727 </i>
    <i name="e_0_energy">   -530.83444644 </i>
   </energy>
  </scstep>
  <scstep>
   <time name="dav">  168.72  169.08</time>
   <time name="total">  173.79  174.17</time>
   <energy>
    <i name="e_fr_energy">   -478.07606842 </i>
    <i name="e_wo_entrp">   -478.01973122 </i>
    <i name="e_0_energy">   -478.04789982 </i>
   </energy>
  </scstep>
  <scstep>
   <time name="dav">  180.79  180.98</time>
   <time name="total">  185.82  186.01</time>
   <energy>
    <i name="e_fr_energy">   -511.35071549 </i>
    <i name="e_wo_entrp">   -511.22824821 </i>
    <i name="e_0_energy">   -511.28948185 </i>
   </energy>
  </scstep>
  <scstep>
   <time name="dav">  194.50  194.71</time>
   <time name="total">  199.52  199.78</time>
   <energy>
    <i name="e_fr_energy">   -444.87128433 </i>
    <i name="e_wo_entrp">   -444.78782378 </i>
    <i name="e_0_energy">   -444.82955406 </i>
   </energy>
  </scstep>
  <scstep>
   <time name="dav">  204.91  205.34</time>
   <time name="total">  210.13  217.30</time>
   <energy>
    <i name="e_fr_energy">   -428.52449472 </i>
    <i name="e_wo_entrp">   -428.48549548 </i>
    <i name="e_0_energy">   -428.50499510 </i>
   </energy>
  </scstep>
  <scstep>
   <time name="dav">  180.44  180.62</time>
   <time name="total">  185.41  185.63</time>
   <energy>
    <i name="e_fr_energy">   -429.30452683 </i>
    <i name="e_wo_entrp">   -429.25126571 </i>
    <i name="e_0_energy">   -429.27789627 </i>
   </energy>
  </scstep>
  <scstep>
   <time name="dav">  173.74  173.99</time>
   <time name="total">  178.76  179.04</time>
   <energy>
    <i name="e_fr_energy">   -427.93335591 </i>
    <i name="e_wo_entrp">   -427.86689418 </i>
    <i name="e_0_energy">   -427.90012505 </i>
   </energy>
  </scstep>
  <scstep>
   <time name="dav">  190.50  190.82</time>
   <time name="total">  195.52  195.88</time>
   <energy>
    <i name="e_fr_energy">   -427.70089038 </i>
    <i name="e_wo_entrp">   -427.64604076 </i>
    <i name="e_0_energy">   -427.67346557 </i>
   </energy>
  </scstep>
  <scstep>
   <time name="dav">  174.51  174.69</time>
   <time name="total">  179.48  179.69</time>
   <energy>
    <i name="e_fr_energy">   -427.64673312 </i>
    <i name="e_wo_entrp">   -427.59212690 </i>
    <i name="e_0_energy">   -427.61943001 </i>
   </energy>
  </scstep>
  <scstep>
   <time name="dav">  173.10  173.29</time>
   <time name="total">  178.12  178.32</time>
   <energy>
    <i name="e_fr_energy">   -427.54168624 </i>
    <i name="e_wo_entrp">   -427.49256189 </i>
    <i name="e_0_energy">   -427.51712406 </i>
   </energy>
  </scstep>
  <scstep>
   <time name="dav">  174.86  175.16</time>
   <time name="total">  179.84  180.18</time>
   <energy>
    <i name="e_fr_energy">   -427.61208501 </i>
    <i name="e_wo_entrp">   -427.56374162 </i>
    <i name="e_0_energy">   -427.58791332 </i>
   </energy>
  </scstep>
  <scstep>
   <time name="dav">  163.25  163.42</time>
   <time name="total">  170.28  170.46</time>
   <energy>
    <i name="e_fr_energy">   -427.51309423 </i>
    <i name="e_wo_entrp">   -427.46359714 </i>
    <i name="e_0_energy">   -427.48834568 </i>
   </energy>
  </scstep>
  <scstep>
   <time name="dav">  172.84  173.05</time>
   <time name="total">  177.89  178.10</time>
   <energy>
    <i name="e_fr_energy">   -427.47900226 </i>
    <i name="e_wo_entrp">   -427.42791453 </i>
    <i name="e_0_energy">   -427.45345840 </i>
   </energy>
  </scstep>
  <scstep>
   <time name="dav">  194.31  194.53</time>
   <time name="total">  199.72  200.03</time>
   <energy>
    <i name="e_fr_energy">   -427.46519804 </i>
    <i name="e_wo_entrp">   -427.41277802 </i>
    <i name="e_0_energy">   -427.43898803 </i>
   </energy>
  </scstep>
  <scstep>
   <time name="dav">  169.62  169.84</time>
   <time name="total">  174.60  174.83</time>
   <energy>
    <i name="e_fr_energy">   -427.46512137 </i>
    <i name="e_wo_entrp">   -427.41214854 </i>
    <i name="e_0_energy">   -427.43863496 </i>
   </energy>
  </scstep>
  <scstep>
   <time name="dav">  165.86  166.04</time>
   <time name="total">  171.60  171.79</time>
   <energy>
    <i name="e_fr_energy">   -427.46558270 </i>
    <i name="e_wo_entrp">   -427.41242016 </i>
    <i name="e_0_energy">   -427.43900143 </i>
   </energy>
  </scstep>
  <scstep>
   <time name="dav">  164.03  164.21</time>
   <time name="total">  169.01  169.20</time>
   <energy>
    <i name="e_fr_energy">   -427.46602819 </i>
    <i name="e_wo_entrp">   -427.41256753 </i>
    <i name="e_0_energy">   -427.43929786 </i>
   </energy>
  </scstep>
  <scstep>
   <time name="dav">  160.59  160.93</time>
   <time name="total">  167.89  168.24</time>
   <energy>
    <i name="e_fr_energy">   -427.46603952 </i>
    <i name="e_wo_entrp">   -427.41284822 </i>
    <i name="e_0_energy">   -427.43944387 </i>
   </energy>
  </scstep>
  <scstep>
   <time name="dav">  159.29  159.47</time>
   <time name="total">  166.35  166.53</time>
   <energy>
    <i name="e_fr_energy">   -427.46608505 </i>
    <i name="e_wo_entrp">   -427.41290264 </i>
    <i name="e_0_energy">   -427.43949384 </i>
   </energy>
  </scstep>
  <scstep>
   <time name="dav">  158.16  158.33</time>
   <time name="total">  163.15  163.32</time>
   <energy>
    <i name="e_fr_energy">   -427.46622213 </i>
    <i name="e_wo_entrp">   -427.41303909 </i>
    <i name="e_0_energy">   -427.43963061 </i>
   </energy>
  </scstep>
  <scstep>
   <time name="dav">  170.57  170.76</time>
   <time name="total">  176.96  177.16</time>
   <energy>
    <i name="e_fr_energy">   -427.46637457 </i>
    <i name="e_wo_entrp">   -427.41322765 </i>
    <i name="e_0_energy">   -427.43980111 </i>
   </energy>
  </scstep>
  <scstep>
   <time name="dav">  181.86  182.25</time>
   <time name="total">  186.83  187.22</time>
   <energy>
    <i name="e_fr_energy">   -427.46662323 </i>
    <i name="e_wo_entrp">   -427.41347731 </i>
    <i name="e_0_energy">   -427.44005027 </i>
   </energy>
  </scstep>
  <scstep>
   <time name="dav">  160.67  160.84</time>
   <time name="total">  165.68  165.86</time>
   <energy>
    <i name="e_fr_energy">   -427.46688681 </i>
    <i name="e_wo_entrp">   -427.41374138 </i>
    <i name="e_0_energy">   -427.44031409 </i>
   </energy>
  </scstep>
  <scstep>
   <time name="dav">  158.31  159.39</time>
   <time name="total">  165.32  166.46</time>
   <energy>
    <i name="e_fr_energy">   -427.46705921 </i>
    <i name="e_wo_entrp">   -427.41392633 </i>
    <i name="e_0_energy">   -427.44049277 </i>
   </energy>
  </scstep>
  <scstep>
   <time name="dav">  154.97  156.75</time>
   <time name="total">  159.95  161.76</time>
   <energy>
    <i name="e_fr_energy">   -427.46717084 </i>
    <i name="e_wo_entrp">   -427.41404936 </i>
    <i name="e_0_energy">   -427.44061010 </i>
   </energy>
  </scstep>
  <scstep>
   <time name="dav">  149.18  149.65</time>
   <time name="total">  154.20  154.68</time>
   <energy>
    <i name="e_fr_energy">   -427.46729134 </i>
    <i name="e_wo_entrp">   -427.41417517 </i>
    <i name="e_0_energy">   -427.44073325 </i>
   </energy>
  </scstep>
  <scstep>
   <time name="dav">  133.59  134.08</time>
   <time name="total">  138.60  139.10</time>
   <energy>
    <i name="e_fr_energy">   -427.46736476 </i>
    <i name="e_wo_entrp">   -427.41423908 </i>
    <i name="e_0_energy">   -427.44080192 </i>
   </energy>
  </scstep>
  <scstep>
   <time name="dav">  152.28  152.99</time>
   <time name="total">  159.74  160.54</time>
   <energy>
    <i name="e_fr_energy">   -427.46744695 </i>
    <i name="e_wo_entrp">   -427.41430405 </i>
    <i name="e_0_energy">   -427.44087550 </i>
   </energy>
  </scstep>
  <scstep>
   <time name="dav">  127.91  129.27</time>
   <time name="total">  132.87  134.27</time>
   <energy>
    <i name="e_fr_energy">   -427.46747231 </i>
    <i name="e_wo_entrp">   -427.41432788 </i>
    <i name="e_0_energy">   -427.44090009 </i>
   </energy>
  </scstep>
  <scstep>
   <time name="dav">  118.58  118.91</time>
   <time name="total">  123.61  123.97</time>
   <energy>
    <i name="e_fr_energy">   -427.46749445 </i>
    <i name="e_wo_entrp">   -427.41435379 </i>
    <i name="e_0_energy">   -427.44092412 </i>
   </energy>
  </scstep>
  <scstep>
   <time name="dav">  118.57  119.22</time>
   <time name="total">  123.54  124.23</time>
   <energy>
    <i name="e_fr_energy">   -427.46751603 </i>
    <i name="e_wo_entrp">   -427.41438210 </i>
    <i name="e_0_energy">   -427.44094906 </i>
   </energy>
  </scstep>
  <scstep>
   <time name="dav">  117.24  117.91</time>
   <time name="total">  122.26  122.93</time>
   <energy>
    <i name="e_fr_energy">   -427.46752293 </i>
    <i name="e_wo_entrp">   -427.41439113 </i>
    <i name="e_0_energy">   -427.44095703 </i>
   </energy>
  </scstep>
  <scstep>
   <time name="dav">  112.63  112.75</time>
   <time name="total">  119.41  119.53</time>
   <energy>
    <i name="e_fr_energy">   -427.46753153 </i>
    <i name="e_wo_entrp">   -427.41439908 </i>
    <i name="e_0_energy">   -427.44096530 </i>
   </energy>
  </scstep>
  <scstep>
   <time name="dav">  118.61  118.88</time>
   <time name="total">  125.42  125.70</time>
   <energy>
    <i name="e_fr_energy">   -427.46753494 </i>
    <i name="e_wo_entrp">   -427.41440088 </i>
    <i name="e_0_energy">   -427.44096791 </i>
   </energy>
  </scstep>
  <scstep>
   <time name="dav">  110.36  110.96</time>
   <time name="total">  117.15  117.80</time>
   <energy>
    <i name="e_fr_energy">   -427.46753630 </i>
    <i name="e_wo_entrp">   -427.41440168 </i>
    <i name="e_0_energy">   -427.44096899 </i>
   </energy>
  </scstep>
  <scstep>
   <time name="dav">  111.46  111.93</time>
   <time name="total">  116.46  116.93</time>
   <energy>
    <i name="e_fr_energy">   -427.46753755 </i>
    <i name="e_wo_entrp">   -427.41440256 </i>
    <i name="e_0_energy">   -427.44097005 </i>
   </energy>
  </scstep>
  <scstep>
   <time name="dav">  111.75  111.86</time>
   <time name="total">  112.92  113.04</time>
   <energy>
    <i name="alphaZ">   6463.29446255 </i>
    <i name="ewald"> 664632.10264646 </i>
    <i name="hartreedc">-813422.94584777 </i>
    <i name="XCdc">   4896.83461584 </i>
    <i name="pawpsdc"> 123760.38167307 </i>
    <i name="pawaedc">-139977.45705869 </i>
    <i name="eentropy">     -0.05313513 </i>
    <i name="bandstr">  -4298.45561068 </i>
    <i name="atom"> 157518.83071590 </i>
    <i name="e_fr_energy">   -427.46753844 </i>
    <i name="e_wo_entrp">   -427.41440332 </i>
    <i name="e_0_energy">   -427.44097088 </i>
   </energy>
  </scstep>
  <structure>
   <crystal>
    <varray name="basis" >
     <v>      10.28518105       0.00000000       0.00000000 </v>
     <v>       5.14259052       8.90722807       0.00000000 </v>
     <v>       0.00000000       0.00000000      27.79016876 </v>
    </varray>
    <i name="volume">   2545.92553775 </i>
    <varray name="rec_basis" >
     <v>       0.09722726      -0.05613419       0.00000000 </v>
     <v>       0.00000000       0.11226837       0.00000000 </v>
     <v>       0.00000000       0.00000000       0.03598395 </v>
    </varray>
   </crystal>
   <varray name="positions" >
    <v>       0.00000000       0.00000000       0.22663990 </v>
    <v>       0.00000000       0.50000000       0.22663990 </v>
    <v>       0.50000000       0.00000000       0.22663990 </v>
    <v>       0.50000000       0.50000000       0.22663990 </v>
    <v>       0.00000000       0.25000000       0.22663990 </v>
    <v>       0.00000000       0.75000000       0.22663990 </v>
    <v>       0.50000000       0.25000000       0.22663990 </v>
    <v>       0.50000000       0.75000000       0.22663990 </v>
    <v>       0.25000000       0.00000000       0.22663990 </v>
    <v>       0.25000000       0.50000000       0.22663990 </v>
    <v>       0.75000000       0.00000000       0.22663990 </v>
    <v>       0.75000000       0.50000000       0.22663990 </v>
    <v>       0.25000000       0.25000000       0.22663990 </v>
    <v>       0.25000000       0.75000000       0.22663990 </v>
    <v>       0.75000000       0.25000000       0.22663990 </v>
    <v>       0.75000000       0.75000000       0.22663990 </v>
    <v>       0.16666666       0.16666666       0.30218653 </v>
    <v>       0.16666666       0.66666666       0.30218653 </v>
    <v>       0.66666666       0.16666666       0.30218653 </v>
    <v>       0.66666666       0.66666666       0.30218653 </v>
    <v>       0.16666666       0.41666666       0.30218653 </v>
    <v>       0.16666666       0.91666666       0.30218653 </v>
    <v>       0.66666666       0.41666666       0.30218653 </v>
    <v>       0.66666666       0.91666666       0.30218653 </v>
    <v>       0.41666666       0.16666666       0.30218653 </v>
    <v>       0.41666666       0.66666666       0.30218653 </v>
    <v>       0.91666666       0.16666666       0.30218653 </v>
    <v>       0.91666666       0.66666666       0.30218653 </v>
    <v>       0.41666666       0.41666666       0.30218653 </v>
    <v>       0.41666666       0.91666666       0.30218653 </v>
    <v>       0.91666666       0.41666666       0.30218653 </v>
    <v>       0.91666666       0.91666666       0.30218653 </v>
    <v>       0.08333333       0.08333333       0.37716320 </v>
    <v>       0.08333333       0.58333333       0.37716320 </v>
    <v>       0.58333333       0.08333333       0.37716320 </v>
    <v>       0.58333333       0.58333333       0.37716320 </v>
    <v>       0.08351614       0.33324190       0.37729758 </v>
    <v>       0.08351614       0.83324190       0.37729758 </v>
    <v>       0.58351614       0.33324190       0.37729758 </v>
    <v>       0.58351614       0.83324190       0.37729758 </v>
    <v>       0.33324190       0.08351614       0.37729758 </v>
    <v>       0.33324190       0.58351614       0.37729758 </v>
    <v>       0.83324190       0.08351614       0.37729758 </v>
    <v>       0.83324190       0.58351614       0.37729758 </v>
    <v>       0.33324190       0.33324190       0.37729758 </v>
    <v>       0.33324190       0.83324190       0.37729758 </v>
    <v>       0.83324190       0.33324190       0.37729758 </v>
    <v>       0.83324190       0.83324190       0.37729758 </v>
    <v>       0.00012997       0.00012997       0.45242342 </v>
    <v>       0.00012997       0.50012997       0.45242342 </v>
    <v>       0.50012997       0.00012997       0.45242342 </v>
    <v>       0.50012997       0.50012997       0.45242342 </v>
    <v>       0.00012997       0.24974005       0.45242342 </v>
    <v>       0.00012997       0.74974005       0.45242342 </v>
    <v>       0.50012997       0.24974005       0.45242342 </v>
    <v>       0.50012997       0.74974005       0.45242342 </v>
    <v>       0.24974005       0.00012997       0.45242342 </v>
    <v>       0.24974005       0.50012997       0.45242342 </v>
    <v>       0.74974005       0.00012997       0.45242342 </v>
    <v>       0.74974005       0.50012997       0.45242342 </v>
    <v>       0.25000000       0.25000000       0.45288750 </v>
    <v>       0.25000000       0.75000000       0.45288750 </v>
    <v>       0.75000000       0.25000000       0.45288750 </v>
    <v>       0.75000000       0.75000000       0.45288750 </v>
    <v>       0.16660598       0.16660598       0.52813907 </v>
    <v>       0.16660598       0.66660598       0.52813907 </v>
    <v>       0.66660598       0.16660598       0.52813907 </v>
    <v>       0.66660598       0.66660598       0.52813907 </v>
    <v>       0.16660598       0.41678801       0.52813907 </v>
    <v>       0.16660598       0.91678801       0.52813907 </v>
    <v>       0.66660598       0.41678801       0.52813907 </v>
    <v>       0.66660598       0.91678801       0.52813907 </v>
    <v>       0.41678801       0.16660598       0.52813907 </v>
    <v>       0.41678801       0.66660598       0.52813907 </v>
    <v>       0.91678801       0.16660598       0.52813907 </v>
    <v>       0.91678801       0.66660598       0.52813907 </v>
    <v>       0.41666666       0.41666666       0.52741939 </v>
    <v>       0.41666666       0.91666666       0.52741939 </v>
    <v>       0.91666666       0.41666666       0.52741939 </v>
    <v>       0.91666666       0.91666666       0.52741939 </v>
    <v>       0.08195833       0.08333333       0.60202450 </v>
    <v>       0.08333333       0.58333333       0.60253339 </v>
    <v>       0.58333333       0.08333333       0.60253339 </v>
    <v>       0.58333333       0.58333333       0.60253339 </v>
    <v>       0.08130935       0.33434529       0.60320464 </v>
    <v>       0.08130935       0.83434529       0.60320464 </v>
    <v>       0.58130935       0.33434529       0.60320464 </v>
    <v>       0.58130935       0.83434529       0.60320464 </v>
    <v>       0.33434529       0.08130935       0.60320464 </v>
    <v>       0.33434529       0.58130935       0.60320464 </v>
    <v>       0.83434529       0.08130935       0.60320464 </v>
    <v>       0.83434529       0.58130935       0.60320464 </v>
    <v>       0.33434529       0.33434529       0.60320464 </v>
    <v>       0.33434529       0.83434529       0.60320464 </v>
    <v>       0.83434529       0.33434529       0.60320464 </v>
    <v>       0.83434529       0.83434529       0.60320464 </v>
    <v>       0.49714648       0.49714648       0.68057248 </v>
    <v>       0.49714648       0.99714648       0.68057248 </v>
    <v>       0.99714648       0.49714648       0.68057248 </v>
    <v>       0.99714648       0.99714648       0.68057248 </v>
    <v>       0.49714648       0.25570704       0.68057248 </v>
    <v>       0.49714648       0.75570704       0.68057248 </v>
    <v>       0.99714648       0.25570704       0.68057248 </v>
    <v>       0.99714648       0.75570704       0.68057248 </v>
    <v>       0.25570704       0.49714648       0.68057248 </v>
    <v>       0.25570704       0.99714648       0.68057248 </v>
    <v>       0.75570704       0.49714648       0.68057248 </v>
    <v>       0.75570704       0.99714648       0.68057248 </v>
    <v>       0.25000000       0.25000000       0.67480871 </v>
    <v>       0.25000000       0.75000000       0.67480871 </v>
    <v>       0.75000000       0.25000000       0.67480871 </v>
    <v>       0.75000000       0.75000000       0.67480871 </v>
    <v>       0.08333333       0.08333333       0.72043888 </v>
    <v>       0.08333333       0.58333333       0.72043888 </v>
    <v>       0.58333333       0.08333333       0.72043888 </v>
    <v>       0.58333333       0.58333333       0.72043888 </v>
   </varray>
  </structure>
  <varray name="forces" >
   <v>       0.00793705       0.00459723       0.07167099 </v>
   <v>       0.00794448       0.00456674       0.07168449 </v>
   <v>       0.00791741       0.00460420       0.07168583 </v>
   <v>       0.00797498       0.00462993       0.07159403 </v>
   <v>      -0.00002571      -0.00914065       0.07166261 </v>
   <v>      -0.00005831      -0.00918118       0.07166361 </v>
   <v>      -0.00004386      -0.00916978       0.07164919 </v>
   <v>       0.00003862      -0.00917255       0.07166634 </v>
   <v>      -0.00789275       0.00454202       0.07165254 </v>
   <v>      -0.00790682       0.00453992       0.07170764 </v>
   <v>      -0.00802182       0.00448761       0.07164511 </v>
   <v>      -0.00789813       0.00469411       0.07164654 </v>
   <v>       0.00003419       0.00005318       0.08635510 </v>
   <v>      -0.00005854       0.00001722       0.08636883 </v>
   <v>       0.00006444      -0.00007136       0.08638285 </v>
   <v>      -0.00005245       0.00000021       0.08624743 </v>
   <v>       0.00694687       0.00406741      -0.07998508 </v>
   <v>       0.00712713       0.00400521      -0.07998714 </v>
   <v>       0.00697935       0.00411803      -0.07995551 </v>
   <v>       0.00709981       0.00414119      -0.07993893 </v>
   <v>      -0.00001570      -0.00812853      -0.07996880 </v>
   <v>      -0.00009751      -0.00812250      -0.07996763 </v>
   <v>       0.00004568      -0.00798415      -0.07990478 </v>
   <v>      -0.00007430      -0.00809684      -0.07999195 </v>
   <v>      -0.00700595       0.00387967      -0.07992034 </v>
   <v>      -0.00679403       0.00410116      -0.07988795 </v>
   <v>      -0.00711881       0.00405413      -0.07995190 </v>
   <v>      -0.00692241       0.00395293      -0.08004565 </v>
   <v>      -0.00017109      -0.00000190      -0.05924082 </v>
   <v>      -0.00017387       0.00008796      -0.05922585 </v>
   <v>      -0.00001913      -0.00014310      -0.05919836 </v>
   <v>       0.00007255       0.00005160      -0.05917094 </v>
   <v>       0.00010557       0.00000003      -0.00007291 </v>
   <v>      -0.00002255       0.00000383       0.00007783 </v>
   <v>      -0.00001581       0.00000945       0.00007512 </v>
   <v>      -0.00003976      -0.00001386       0.00007377 </v>
   <v>       0.00001215      -0.00009069       0.00003837 </v>
   <v>       0.00008864       0.00001714      -0.00000007 </v>
   <v>      -0.00009630      -0.00000326      -0.00011078 </v>
   <v>       0.00010813      -0.00008997      -0.00014141 </v>
   <v>      -0.00001416       0.00002043       0.00000760 </v>
   <v>      -0.00010677      -0.00011863      -0.00015980 </v>
   <v>      -0.00002188       0.00004544      -0.00006961 </v>
   <v>      -0.00005157       0.00009083      -0.00011514 </v>
   <v>       0.00010812       0.00012691      -0.00021199 </v>
   <v>       0.00003377      -0.00005135      -0.00006599 </v>
   <v>      -0.00004994       0.00006828      -0.00010474 </v>
   <v>      -0.00005127       0.00000248      -0.00009375 </v>
   <v>      -0.00023653      -0.00003279      -0.00096195 </v>
   <v>      -0.00004497      -0.00013396       0.00008768 </v>
   <v>      -0.00004425      -0.00002418       0.00006052 </v>
   <v>      -0.00003613       0.00000765      -0.00000688 </v>
   <v>      -0.00018155       0.00007848      -0.00071263 </v>
   <v>       0.00016106       0.00015570       0.00016966 </v>
   <v>      -0.00005178       0.00005779       0.00005465 </v>
   <v>       0.00001981       0.00004472       0.00011421 </v>
   <v>      -0.00010449      -0.00004562      -0.00045651 </v>
   <v>       0.00006428      -0.00006841       0.00012310 </v>
   <v>       0.00019810       0.00004404       0.00023013 </v>
   <v>       0.00005717      -0.00008905       0.00020190 </v>
   <v>       0.00020326       0.00006866      -0.00018099 </v>
   <v>       0.00008698      -0.00015157      -0.00007111 </v>
   <v>      -0.00005952       0.00008608       0.00003291 </v>
   <v>       0.00016249       0.00000180      -0.00012189 </v>
   <v>       0.00665818       0.00276097      -0.00614191 </v>
   <v>      -0.00006379      -0.00059148      -0.00031895 </v>
   <v>      -0.00096838       0.00033039      -0.00058175 </v>
   <v>      -0.00010298      -0.00010974      -0.00009291 </v>
   <v>       0.00009851      -0.00013099      -0.00002019 </v>
   <v>       0.00196112      -0.01442516      -0.01826064 </v>
   <v>      -0.00067276       0.00051002      -0.00054073 </v>
   <v>       0.00008326       0.00010700      -0.00005175 </v>
   <v>      -0.00024979       0.00015318       0.00001367 </v>
   <v>      -0.00012386      -0.00026564      -0.00024416 </v>
   <v>      -0.01850438       0.01186709      -0.03093314 </v>
   <v>       0.00007979      -0.00000014      -0.00001293 </v>
   <v>       0.00006737      -0.00000111       0.00010654 </v>
   <v>       0.00007685       0.00013287       0.00040194 </v>
   <v>       0.00031474       0.00037377      -0.00002525 </v>
   <v>      -0.00057425      -0.00051775      -0.00044899 </v>
   <v>       0.08717571      -0.00005536       0.08300417 </v>
   <v>       0.00006863      -0.00010811       0.00012979 </v>
   <v>      -0.00012208      -0.00001432       0.00014800 </v>
   <v>       0.00009241       0.00012546       0.00015985 </v>
   <v>      -0.00475766      -0.01107740       0.00096526 </v>
   <v>      -0.00488891      -0.01112548       0.00107638 </v>
   <v>      -0.00042330       0.00024860      -0.00041595 </v>
   <v>      -0.00070822       0.00032543      -0.00043186 </v>
   <v>      -0.02340671       0.00038834       0.00086667 </v>
   <v>       0.00001630       0.00016216      -0.00030734 </v>
   <v>      -0.02469984      -0.00002448       0.00107875 </v>
   <v>      -0.00013767      -0.00004457      -0.00025464 </v>
   <v>      -0.00068268      -0.00040896      -0.00018706 </v>
   <v>      -0.00536748       0.01101265       0.00087426 </v>
   <v>      -0.00487574       0.01080757       0.00097502 </v>
   <v>      -0.00061678      -0.00028048      -0.00005515 </v>
   <v>      -0.00004708      -0.00022880      -0.00079849 </v>
   <v>      -0.00149048       0.00089730      -0.00104885 </v>
   <v>       0.00001514      -0.00098291      -0.00091407 </v>
   <v>       0.00338444       0.00125044      -0.00297168 </v>
   <v>       0.00034660       0.00015824      -0.00076246 </v>
   <v>      -0.00114316       0.00056468      -0.00107129 </v>
   <v>       0.00117105      -0.00646059      -0.00904383 </v>
   <v>      -0.00020334      -0.00016944      -0.00079847 </v>
   <v>       0.00022683       0.00006730      -0.00071179 </v>
   <v>      -0.00772614       0.00511022      -0.01479734 </v>
   <v>      -0.00011212      -0.00003012      -0.00093407 </v>
   <v>      -0.00069359      -0.00029272      -0.00079475 </v>
   <v>      -0.00043564      -0.00040514      -0.00004682 </v>
   <v>       0.00026398       0.00022057      -0.00001793 </v>
   <v>      -0.00004616       0.00017726       0.00000648 </v>
   <v>       0.00021115       0.00000298      -0.00004642 </v>
   <v>       0.00036505      -0.00000326      -0.00693332 </v>
   <v>       0.00005341       0.00029905       0.00158245 </v>
   <v>       0.00057024      -0.00027927       0.00152309 </v>
   <v>       0.00053249      -0.00001564       0.00147380 </v>
  </varray>
  <varray name="stress" >
   <v>      -2.05785945      -0.00166539       0.00905036 </v>
   <v>      -0.00166540      -2.05907697      -0.00040686 </v>
   <v>       0.00905035      -0.00040687      -2.14007233 </v>
  </varray>
  <energy>
   <i name="e_fr_energy">   -427.46753844 </i>
   <i name="e_wo_entrp">   -427.44097088 </i>
   <i name="e_0_energy">     -0.05313513 </i>
  </energy>
  <time name="totalsc"> 6947.17 6971.63</time>
  <eigenvalues>
   <array>
    <dimension dim="1">band</dimension>
    <dimension dim="2">kpoint</dimension>
    <dimension dim="3">spin</dimension>
    <field>eigene</field>
    <field>occ</field>
    <set>
     <set comment="spin 1">
      <set comment="kpoint 1">
       <r>  -18.6062    1.0000 </r>
       <r>  -18.5935    1.0000 </r>
       <r>  -18.5934    1.0000 </r>
       <r>  -18.5930    1.0000 </r>
       <r>   -9.4533    1.0000 </r>
       <r>   -8.9607    1.0000 </r>
       <r>   -8.1732    1.0000 </r>
       <r>   -7.5999    1.0000 </r>
       <r>   -7.5993    1.0000 </r>
       <r>   -7.5988    1.0000 </r>
       <r>   -7.5785    1.0000 </r>
       <r>   -7.5772    1.0000 </r>
       <r>   -7.5770    1.0000 </r>
       <r>   -7.2196    1.0000 </r>
       <r>   -7.2191    1.0000 </r>
       <r>   -7.2187    1.0000 </r>
       <r>   -7.1996    1.0000 </r>
       <r>   -7.1463    1.0000 </r>
       <r>   -7.1453    1.0000 </r>
       <r>   -7.1449    1.0000 </r>
       <r>   -6.6268    1.0000 </r>
       <r>   -6.6265    1.0000 </r>
       <r>   -6.6264    1.0000 </r>
       <r>   -6.4852    1.0000 </r>
       <r>   -6.4849    1.0000 </r>
       <r>   -6.4830    1.0000 </r>
       <r>   -6.2514    1.0000 </r>
       <r>   -5.9484    1.0000 </r>
       <r>   -5.9482    1.0000 </r>
       <r>   -5.9479    1.0000 </r>
       <r>   -5.7416    1.0000 </r>
       <r>   -5.7415    1.0000 </r>
       <r>   -5.7403    1.0000 </r>
       <r>   -5.6687    1.0000 </r>
       <r>   -5.6243    1.0000 </r>
       <r>   -5.6242    1.0000 </r>
       <r>   -5.4387    1.0000 </r>
       <r>   -5.4096    1.0000 </r>
       <r>   -5.4092    1.0000 </r>
       <r>   -5.4091    1.0000 </r>
       <r>   -5.3414    1.0000 </r>
       <r>   -5.3411    1.0000 </r>
       <r>   -5.3406    1.0000 </r>
       <r>   -5.3242    1.0000 </r>
       <r>   -5.2832    1.0000 </r>
       <r>   -5.2831    1.0000 </r>
       <r>   -5.2150    1.0000 </r>
       <r>   -5.2085    1.0000 </r>
       <r>   -5.2084    1.0000 </r>
       <r>   -5.2061    1.0000 </r>
       <r>   -5.1346    1.0000 </r>
       <r>   -5.1343    1.0000 </r>
       <r>   -5.1233    1.0000 </r>
       <r>   -5.0558    1.0000 </r>
       <r>   -5.0335    1.0000 </r>
       <r>   -5.0333    1.0000 </r>
       <r>   -5.0052    1.0000 </r>
       <r>   -5.0036    1.0000 </r>
       <r>   -5.0034    1.0000 </r>
       <r>   -4.9784    1.0000 </r>
       <r>   -4.9780    1.0000 </r>
       <r>   -4.9776    1.0000 </r>
       <r>   -4.9629    1.0000 </r>
       <r>   -4.9627    1.0000 </r>
       <r>   -4.9566    1.0000 </r>
       <r>   -4.9564    1.0000 </r>
       <r>   -4.9562    1.0000 </r>
       <r>   -4.9356    1.0000 </r>
       <r>   -4.8830    1.0000 </r>
       <r>   -4.8828    1.0000 </r>
       <r>   -4.8823    1.0000 </r>
       <r>   -4.8539    1.0000 </r>
       <r>   -4.8538    1.0000 </r>
       <r>   -4.8535    1.0000 </r>
       <r>   -4.8404    1.0000 </r>
       <r>   -4.8245    1.0000 </r>
       <r>   -4.8244    1.0000 </r>
       <r>   -4.8119    1.0000 </r>
       <r>   -4.8116    1.0000 </r>
       <r>   -4.8103    1.0000 </r>
       <r>   -4.7491    1.0000 </r>
       <r>   -4.7490    1.0000 </r>
       <r>   -4.7489    1.0000 </r>
       <r>   -4.7069    1.0000 </r>
       <r>   -4.7063    1.0000 </r>
       <r>   -4.7062    1.0000 </r>
       <r>   -4.7033    1.0000 </r>
       <r>   -4.6944    1.0000 </r>
       <r>   -4.6943    1.0000 </r>
       <r>   -4.6217    1.0000 </r>
       <r>   -4.6211    1.0000 </r>
       <r>   -4.6207    1.0000 </r>
       <r>   -4.5862    1.0000 </r>
       <r>   -4.5859    1.0000 </r>
       <r>   -4.5856    1.0000 </r>
       <r>   -4.5823    1.0000 </r>
       <r>   -4.5781    1.0000 </r>
       <r>   -4.5781    1.0000 </r>
       <r>   -4.5453    1.0000 </r>
       <r>   -4.5388    1.0000 </r>
       <r>   -4.5386    1.0000 </r>
       <r>   -4.5385    1.0000 </r>
       <r>   -4.5382    1.0000 </r>
       <r>   -4.5381    1.0000 </r>
       <r>   -4.5278    1.0000 </r>
       <r>   -4.5277    1.0000 </r>
       <r>   -4.5276    1.0000 </r>
       <r>   -4.5041    1.0000 </r>
       <r>   -4.5038    1.0000 </r>
       <r>   -4.5036    1.0000 </r>
       <r>   -4.4603    1.0000 </r>
       <r>   -4.4603    1.0000 </r>
       <r>   -4.4603    1.0000 </r>
       <r>   -4.4545    1.0000 </r>
       <r>   -4.4545    1.0000 </r>
       <r>   -4.4544    1.0000 </r>
       <r>   -4.4474    1.0000 </r>
       <r>   -4.4465    1.0000 </r>
       <r>   -4.4464    1.0000 </r>
       <r>   -4.4071    1.0000 </r>
       <r>   -4.4057    1.0000 </r>
       <r>   -4.4053    1.0000 </r>
       <r>   -4.3882    1.0000 </r>
       <r>   -4.3880    1.0000 </r>
       <r>   -4.3508    1.0000 </r>
       <r>   -4.3500    1.0000 </r>
       <r>   -4.3497    1.0000 </r>
       <r>   -4.3371    1.0000 </r>
       <r>   -4.2427    1.0000 </r>
       <r>   -4.2426    1.0000 </r>
       <r>   -4.2291    1.0000 </r>
       <r>   -4.2285    1.0000 </r>
       <r>   -4.2281    1.0000 </r>
       <r>   -4.2208    1.0000 </r>
       <r>   -4.2199    1.0000 </r>
       <r>   -4.2194    1.0000 </r>
       <r>   -4.2179    1.0000 </r>
       <r>   -4.2175    1.0000 </r>
       <r>   -4.2173    1.0000 </r>
       <r>   -4.2150    1.0000 </r>
       <r>   -4.2140    1.0000 </r>
       <r>   -4.2140    1.0000 </r>
       <r>   -4.2112    1.0000 </r>
       <r>   -4.2111    1.0000 </r>
       <r>   -4.2108    1.0000 </r>
       <r>   -4.1798    1.0000 </r>
       <r>   -4.1796    1.0000 </r>
       <r>   -4.1793    1.0000 </r>
       <r>   -4.0976    1.0000 </r>
       <r>   -4.0969    1.0000 </r>
       <r>   -4.0968    1.0000 </r>
       <r>   -4.0786    1.0000 </r>
       <r>   -4.0785    1.0000 </r>
       <r>   -4.0781    1.0000 </r>
       <r>   -4.0765    1.0000 </r>
       <r>   -4.0762    1.0000 </r>
       <r>   -4.0758    1.0000 </r>
       <r>   -4.0577    1.0000 </r>
       <r>   -4.0566    1.0000 </r>
       <r>   -4.0564    1.0000 </r>
       <r>   -4.0443    1.0000 </r>
       <r>   -4.0440    1.0000 </r>
       <r>   -4.0435    1.0000 </r>
       <r>   -4.0167    1.0000 </r>
       <r>   -4.0049    1.0000 </r>
       <r>   -4.0046    1.0000 </r>
       <r>   -4.0043    1.0000 </r>
       <r>   -3.9693    1.0000 </r>
       <r>   -3.9692    1.0000 </r>
       <r>   -3.9382    1.0000 </r>
       <r>   -3.9379    1.0000 </r>
       <r>   -3.9379    1.0000 </r>
       <r>   -3.9289    1.0000 </r>
       <r>   -3.9287    1.0000 </r>
       <r>   -3.9285    1.0000 </r>
       <r>   -3.9093    1.0000 </r>
       <r>   -3.9093    1.0000 </r>
       <r>   -3.9091    1.0000 </r>
       <r>   -3.8793    1.0000 </r>
       <r>   -3.8792    1.0000 </r>
       <r>   -3.8790    1.0000 </r>
       <r>   -3.8768    1.0000 </r>
       <r>   -3.8765    1.0000 </r>
       <r>   -3.8758    1.0000 </r>
       <r>   -3.8315    1.0000 </r>
       <r>   -3.8307    1.0000 </r>
       <r>   -3.8307    1.0000 </r>
       <r>   -3.8306    1.0000 </r>
       <r>   -3.8133    1.0000 </r>
       <r>   -3.8120    1.0000 </r>
       <r>   -3.8119    1.0000 </r>
       <r>   -3.7984    1.0000 </r>
       <r>   -3.7983    1.0000 </r>
       <r>   -3.7981    1.0000 </r>
       <r>   -3.7862    1.0000 </r>
       <r>   -3.7861    1.0000 </r>
       <r>   -3.7861    1.0000 </r>
       <r>   -3.7746    1.0000 </r>
       <r>   -3.7744    1.0000 </r>
       <r>   -3.7744    1.0000 </r>
       <r>   -3.7508    1.0000 </r>
       <r>   -3.7503    1.0000 </r>
       <r>   -3.7500    1.0000 </r>
       <r>   -3.7091    1.0000 </r>
       <r>   -3.7088    1.0000 </r>
       <r>   -3.7086    1.0000 </r>
       <r>   -3.7069    1.0000 </r>
       <r>   -3.7068    1.0000 </r>
       <r>   -3.7068    1.0000 </r>
       <r>   -3.6824    1.0000 </r>
       <r>   -3.6822    1.0000 </r>
       <r>   -3.6819    1.0000 </r>
       <r>   -3.6769    1.0000 </r>
       <r>   -3.6767    1.0000 </r>
       <r>   -3.6766    1.0000 </r>
       <r>   -3.6691    1.0000 </r>
       <r>   -3.6686    1.0000 </r>
       <r>   -3.6406    1.0000 </r>
       <r>   -3.6406    1.0000 </r>
       <r>   -3.6402    1.0000 </r>
       <r>   -3.6180    1.0000 </r>
       <r>   -3.6157    1.0000 </r>
       <r>   -3.6156    1.0000 </r>
       <r>   -3.6151    1.0000 </r>
       <r>   -3.6030    1.0000 </r>
       <r>   -3.6024    1.0000 </r>
       <r>   -3.6022    1.0000 </r>
       <r>   -3.6009    1.0000 </r>
       <r>   -3.6008    1.0000 </r>
       <r>   -3.6007    1.0000 </r>
       <r>   -3.5974    1.0000 </r>
       <r>   -3.5971    1.0000 </r>
       <r>   -3.5969    1.0000 </r>
       <r>   -3.5809    1.0000 </r>
       <r>   -3.5807    1.0000 </r>
       <r>   -3.5803    1.0000 </r>
       <r>   -3.5504    1.0000 </r>
       <r>   -3.5498    1.0000 </r>
       <r>   -3.5493    1.0000 </r>
       <r>   -3.5371    1.0000 </r>
       <r>   -3.5300    1.0000 </r>
       <r>   -3.5117    1.0000 </r>
       <r>   -3.5114    1.0000 </r>
       <r>   -3.4478    1.0000 </r>
       <r>   -3.4477    1.0000 </r>
       <r>   -3.4475    1.0000 </r>
       <r>   -3.4418    1.0000 </r>
       <r>   -3.4337    1.0000 </r>
       <r>   -3.4334    1.0000 </r>
       <r>   -3.4333    1.0000 </r>
       <r>   -3.4282    1.0000 </r>
       <r>   -3.4279    1.0000 </r>
       <r>   -3.4277    1.0000 </r>
       <r>   -3.4192    1.0000 </r>
       <r>   -3.4189    1.0000 </r>
       <r>   -3.4184    1.0000 </r>
       <r>   -3.4179    1.0000 </r>
       <r>   -3.4179    1.0000 </r>
       <r>   -3.4159    1.0000 </r>
       <r>   -3.4156    1.0000 </r>
       <r>   -3.4155    1.0000 </r>
       <r>   -3.4099    1.0000 </r>
       <r>   -3.3980    1.0000 </r>
       <r>   -3.3977    1.0000 </r>
       <r>   -3.3975    1.0000 </r>
       <r>   -3.3865    1.0000 </r>
       <r>   -3.3864    1.0000 </r>
       <r>   -3.3748    1.0000 </r>
       <r>   -3.3632    1.0000 </r>
       <r>   -3.3631    1.0000 </r>
       <r>   -3.3620    1.0000 </r>
       <r>   -3.3503    1.0000 </r>
       <r>   -3.3502    1.0000 </r>
       <r>   -3.3459    1.0000 </r>
       <r>   -3.3458    1.0000 </r>
       <r>   -3.3455    1.0000 </r>
       <r>   -3.3359    1.0000 </r>
       <r>   -3.3357    1.0000 </r>
       <r>   -3.3356    1.0000 </r>
       <r>   -3.3148    1.0000 </r>
       <r>   -3.3148    1.0000 </r>
       <r>   -3.3043    1.0000 </r>
       <r>   -3.3042    1.0000 </r>
       <r>   -3.3035    1.0000 </r>
[...]
       <r>   -14.5219     0.0000     8.0000 </r>
       <r>   -14.4277     0.0000     8.0000 </r>
       <r>   -14.3336     0.0000     8.0000 </r>
       <r>   -14.2394     0.0000     8.0000 </r>
       <r>   -14.1452     0.0000     8.0000 </r>
       <r>   -14.0510     0.0000     8.0000 </r>
       <r>   -13.9568     0.0000     8.0000 </r>
       <r>   -13.8626     0.0000     8.0000 </r>
       <r>   -13.7684     0.0000     8.0000 </r>
       <r>   -13.6743     0.0000     8.0000 </r>
       <r>   -13.5801     0.0000     8.0000 </r>
       <r>   -13.4859     0.0000     8.0000 </r>
       <r>   -13.3917     0.0000     8.0000 </r>
       <r>   -13.2975     0.0000     8.0000 </r>
       <r>   -13.2033     0.0000     8.0000 </r>
       <r>   -13.1091     0.0000     8.0000 </r>
       <r>   -13.0149     0.0000     8.0000 </r>
       <r>   -12.9208     0.0000     8.0000 </r>
       <r>   -12.8266     0.0000     8.0000 </r>
       <r>   -12.7324     0.0000     8.0000 </r>
       <r>   -12.6382     0.0000     8.0000 </r>
       <r>   -12.5440     0.0000     8.0000 </r>
       <r>   -12.4498     0.0000     8.0000 </r>
       <r>   -12.3556     0.0000     8.0000 </r>
       <r>   -12.2615     0.0000     8.0000 </r>
       <r>   -12.1673     0.0000     8.0000 </r>
       <r>   -12.0731     0.0000     8.0000 </r>
       <r>   -11.9789     0.0000     8.0000 </r>
       <r>   -11.8847     0.0000     8.0000 </r>
       <r>   -11.7905     0.0000     8.0000 </r>
       <r>   -11.6963     0.0000     8.0000 </r>
       <r>   -11.6021     0.0000     8.0000 </r>
       <r>   -11.5080     0.0000     8.0000 </r>
       <r>   -11.4138     0.0000     8.0000 </r>
       <r>   -11.3196     0.0000     8.0000 </r>
       <r>   -11.2254     0.0000     8.0000 </r>
       <r>   -11.1312     0.0000     8.0000 </r>
       <r>   -11.0370     0.0000     8.0000 </r>
       <r>   -10.9428     0.0000     8.0000 </r>
       <r>   -10.8487     0.0000     8.0000 </r>
       <r>   -10.7545     0.0000     8.0000 </r>
       <r>   -10.6603     0.0000     8.0000 </r>
       <r>   -10.5661     0.0000     8.0000 </r>
       <r>   -10.4719     0.0000     8.0000 </r>
       <r>   -10.3777     0.0000     8.0000 </r>
       <r>   -10.2835     0.0000     8.0000 </r>
       <r>   -10.1894     0.0000     8.0000 </r>
       <r>   -10.0952     0.0000     8.0000 </r>
       <r>   -10.0010     0.0000     8.0000 </r>
       <r>    -9.9068     0.0000     8.0000 </r>
       <r>    -9.8126     0.0000     8.0000 </r>
       <r>    -9.7184     0.0000     8.0000 </r>
       <r>    -9.6242     0.0000     8.0000 </r>
       <r>    -9.5300     0.0198     8.0019 </r>
       <r>    -9.4359     0.9048     8.0871 </r>
       <r>    -9.3417     3.3058     8.3985 </r>
       <r>    -9.2475     4.9782     8.8673 </r>
       <r>    -9.1533     0.2819     8.8939 </r>
       <r>    -9.0591     5.8826     9.4480 </r>
       <r>    -8.9649     6.2661    10.0381 </r>
       <r>    -8.8707     6.4171    10.6425 </r>
       <r>    -8.7766     6.1675    11.2234 </r>
       <r>    -8.6824     0.5849    11.2785 </r>
       <r>    -8.5882    15.6089    12.7487 </r>
       <r>    -8.4940    11.1835    13.8020 </r>
       <r>    -8.3998     6.2718    14.3927 </r>
       <r>    -8.3056     6.1709    14.9739 </r>
       <r>    -8.2114     0.8055    15.0498 </r>
       <r>    -8.1172    12.9305    16.2677 </r>
       <r>    -8.0231    14.5771    17.6407 </r>
       <r>    -7.9289    13.3124    18.8945 </r>
       <r>    -7.8347    19.4920    20.7304 </r>
       <r>    -7.7405     6.8784    21.3782 </r>
       <r>    -7.6463     6.0305    21.9462 </r>
       <r>    -7.5521    13.0902    23.1792 </r>
       <r>    -7.4579    15.7344    24.6611 </r>
       <r>    -7.3638    16.4167    26.2073 </r>
       <r>    -7.2696     8.9449    27.0498 </r>
       <r>    -7.1754    20.5164    28.9822 </r>
       <r>    -7.0812    16.3536    30.5225 </r>
       <r>    -6.9870    13.1494    31.7610 </r>
       <r>    -6.8928    16.6674    33.3308 </r>
       <r>    -6.7986    31.7836    36.3244 </r>
       <r>    -6.7045    15.2773    37.7633 </r>
       <r>    -6.6103    18.3441    39.4911 </r>
       <r>    -6.5161    13.4859    40.7613 </r>
       <r>    -6.4219    24.4869    43.0676 </r>
       <r>    -6.3277    23.5397    45.2847 </r>
       <r>    -6.2335    18.7282    47.0487 </r>
       <r>    -6.1393    46.6343    51.4410 </r>
       <r>    -6.0451    20.9532    53.4145 </r>
       <r>    -5.9510    45.9248    57.7400 </r>
       <r>    -5.8568    21.2277    59.7394 </r>
       <r>    -5.7626    20.5735    61.6771 </r>
       <r>    -5.6684    59.6009    67.2907 </r>
       <r>    -5.5742    86.9374    75.4790 </r>
       <r>    -5.4800    74.1892    82.4667 </r>
       <r>    -5.3858    60.5595    88.1705 </r>
       <r>    -5.2917    95.4975    97.1651 </r>
       <r>    -5.1975    89.0719   105.5545 </r>
       <r>    -5.1033   108.1247   115.7384 </r>
       <r>    -5.0091   119.4969   126.9934 </r>
       <r>    -4.9149   145.2453   140.6735 </r>
       <r>    -4.8207   127.6111   152.6927 </r>
       <r>    -4.7265   126.4906   164.6065 </r>
       <r>    -4.6323   166.6439   180.3021 </r>
       <r>    -4.5382   204.5528   199.5682 </r>
       <r>    -4.4440   241.1928   222.2853 </r>
       <r>    -4.3498   284.5153   249.0828 </r>
       <r>    -4.2556   253.8167   272.9889 </r>
       <r>    -4.1614   219.7512   293.6864 </r>
       <r>    -4.0672   206.5789   313.1434 </r>
       <r>    -3.9730   219.6085   333.8275 </r>
       <r>    -3.8789   272.5345   359.4966 </r>
       <r>    -3.7847   278.6307   385.7398 </r>
       <r>    -3.6905   321.8256   416.0515 </r>
       <r>    -3.5963   318.4275   446.0430 </r>
       <r>    -3.5021   325.1914   476.6716 </r>
       <r>    -3.4079   392.8155   513.6696 </r>
       <r>    -3.3137   477.5304   558.6465 </r>
       <r>    -3.2196   506.0468   606.3092 </r>
       <r>    -3.1254   438.3034   647.5915 </r>
       <r>    -3.0312   452.0252   690.1661 </r>
       <r>    -2.9370   325.5642   720.8299 </r>
       <r>    -2.8428   362.9589   755.0157 </r>
       <r>    -2.7486   347.3090   787.7275 </r>
       <r>    -2.6544   410.5144   826.3924 </r>
       <r>    -2.5602   409.3351   864.9462 </r>
       <r>    -2.4661   389.0745   901.5918 </r>
       <r>    -2.3719   429.3895   942.0345 </r>
       <r>    -2.2777   419.7513   981.5694 </r>
       <r>    -2.1835   440.6819  1023.0757 </r>
       <r>    -2.0893   530.2437  1073.0174 </r>
       <r>    -1.9951   616.1754  1131.0528 </r>
       <r>    -1.9009   434.2047  1171.9490 </r>
       <r>    -1.8068   161.8148  1187.1898 </r>
       <r>    -1.7126    69.3448  1193.7211 </r>
       <r>    -1.6184    52.2766  1198.6449 </r>
       <r>    -1.5242    58.5729  1204.1617 </r>
       <r>    -1.4300    59.4136  1209.7576 </r>
       <r>    -1.3358    89.5252  1218.1897 </r>
       <r>    -1.2416    59.4924  1223.7931 </r>
       <r>    -1.1474    35.8768  1227.1722 </r>
       <r>    -1.0533    11.6348  1228.2680 </r>
       <r>    -0.9591    47.8241  1232.7724 </r>
       <r>    -0.8649    37.9985  1236.3513 </r>
       <r>    -0.7707    43.9539  1240.4912 </r>
       <r>    -0.6765    47.0925  1244.9267 </r>
       <r>    -0.5823    58.0316  1250.3925 </r>
       <r>    -0.4881    20.2696  1252.3016 </r>
       <r>    -0.3940    34.9309  1255.5916 </r>
       <r>    -0.2998    37.5314  1259.1266 </r>
       <r>    -0.2056    41.1592  1263.0032 </r>
       <r>    -0.1114    23.6559  1265.2313 </r>
       <r>    -0.0172    35.0430  1268.5318 </r>
       <r>     0.0770    48.7682  1273.1252 </r>
       <r>     0.1712    42.4277  1277.1213 </r>
       <r>     0.2653    12.9658  1278.3425 </r>
       <r>     0.3595    25.6075  1280.7544 </r>
       <r>     0.4537    43.4333  1284.8452 </r>
       <r>     0.5479    33.9634  1288.0441 </r>
       <r>     0.6421    28.4818  1290.7267 </r>
       <r>     0.7363    54.2950  1295.8405 </r>
       <r>     0.8305    35.3673  1299.1717 </r>
       <r>     0.9247    31.4384  1302.1327 </r>
       <r>     1.0188    29.1149  1304.8750 </r>
       <r>     1.1130    29.0277  1307.6090 </r>
       <r>     1.2072    47.1530  1312.0502 </r>
       <r>     1.3014    19.5721  1313.8936 </r>
       <r>     1.3956    20.2174  1315.7978 </r>
       <r>     1.4898    37.2802  1319.3091 </r>
       <r>     1.5840    32.1550  1322.3377 </r>
       <r>     1.6781    27.8724  1324.9629 </r>
       <r>     1.7723    20.4087  1326.8851 </r>
       <r>     1.8665    41.4851  1330.7924 </r>
       <r>     1.9607    37.1369  1334.2902 </r>
       <r>     2.0549    39.3770  1337.9990 </r>
       <r>     2.1491    24.6928  1340.3247 </r>
       <r>     2.2433    37.8401  1343.8887 </r>
       <r>     2.3374    24.6477  1346.2102 </r>
       <r>     2.4316    22.5160  1348.3309 </r>
       <r>     2.5258    14.7745  1349.7225 </r>
       <r>     2.6200    11.8326  1350.8370 </r>
       <r>     2.7142    19.5685  1352.6800 </r>
       <r>     2.8084    32.6175  1355.7522 </r>
       <r>     2.9026    28.1052  1358.3993 </r>
       <r>     2.9968    27.1646  1360.9578 </r>
       <r>     3.0909    19.4290  1362.7878 </r>
       <r>     3.1851    23.3938  1364.9912 </r>
       <r>     3.2793    21.1568  1366.9839 </r>
       <r>     3.3735     8.6387  1367.7975 </r>
       <r>     3.4677    30.6278  1370.6822 </r>
       <r>     3.5619    32.0073  1373.6969 </r>
       <r>     3.6561    27.8073  1376.3160 </r>
       <r>     3.7502     7.1497  1376.9894 </r>
       <r>     3.8444    21.6755  1379.0309 </r>
       <r>     3.9386    44.3405  1383.2072 </r>
       <r>     4.0328    32.5826  1386.2760 </r>
       <r>     4.1270    41.9922  1390.2311 </r>
       <r>     4.2212    51.0279  1395.0372 </r>
       <r>     4.3154    35.2916  1398.3612 </r>
       <r>     4.4096    18.4682  1400.1007 </r>
       <r>     4.5037    23.0450  1402.2712 </r>
       <r>     4.5979    31.6451  1405.2518 </r>
       <r>     4.6921    37.9425  1408.8254 </r>
       <r>     4.7863    40.8879  1412.6765 </r>
       <r>     4.8805    47.7897  1417.1777 </r>
       <r>     4.9747    38.2330  1420.7787 </r>
       <r>     5.0689    40.2274  1424.5676 </r>
       <r>     5.1630    37.0970  1428.0616 </r>
       <r>     5.2572    28.6856  1430.7634 </r>
       <r>     5.3514    59.5025  1436.3677 </r>
       <r>     5.4456    37.3195  1439.8827 </r>
       <r>     5.5398    54.1693  1444.9848 </r>
       <r>     5.6340    33.9381  1448.1813 </r>
       <r>     5.7282    34.1570  1451.3984 </r>
       <r>     5.8223    33.8688  1454.5884 </r>
       <r>     5.9165    33.0868  1457.7047 </r>
       <r>     6.0107    61.5522  1463.5021 </r>
       <r>     6.1049    54.4034  1468.6262 </r>
       <r>     6.1991    44.5135  1472.8187 </r>
       <r>     6.2933    40.4056  1476.6244 </r>
       <r>     6.3875    36.4402  1480.0566 </r>
       <r>     6.4817    51.2408  1484.8828 </r>
       <r>     6.5758    42.7933  1488.9133 </r>
       <r>     6.6700    35.3760  1492.2453 </r>
       <r>     6.7642    37.2061  1495.7496 </r>
       <r>     6.8584    59.2262  1501.3279 </r>
       <r>     6.9526    48.9304  1505.9365 </r>
       <r>     7.0468    36.6816  1509.3914 </r>
       <r>     7.1410    26.7705  1511.9128 </r>
       <r>     7.2351     0.9259  1512.0000 </r>
       <r>     7.3293     0.0001  1512.0000 </r>
       <r>     7.4235     0.0000  1512.0000 </r>
       <r>     7.5177     0.0000  1512.0000 </r>
       <r>     7.6119     0.0000  1512.0000 </r>
       <r>     7.7061     0.0000  1512.0000 </r>
       <r>     7.8003     0.0000  1512.0000 </r>
       <r>     7.8945     0.0000  1512.0000 </r>
       <r>     7.9886     0.0000  1512.0000 </r>
       <r>     8.0828     0.0000  1512.0000 </r>
       <r>     8.1770     0.0000  1512.0000 </r>
       <r>     8.2712     0.0000  1512.0000 </r>
       <r>     8.3654     0.0000  1512.0000 </r>
      </set>
     </set>
    </array>
   </total>
  </dos>
 </calculation>
 <structure name="finalpos" >
  <crystal>
   <varray name="basis" >
    <v>      10.28518105       0.00000000       0.00000000 </v>
    <v>       5.14259052       8.90722807       0.00000000 </v>
    <v>       0.00000000       0.00000000      27.79016876 </v>
   </varray>
   <i name="volume">   2545.92553775 </i>
   <varray name="rec_basis" >
    <v>       0.09722726      -0.05613419       0.00000000 </v>
    <v>       0.00000000       0.11226837       0.00000000 </v>
    <v>       0.00000000       0.00000000       0.03598395 </v>
   </varray>
  </crystal>
  <varray name="positions" >
   <v>       0.00000000       0.00000000       0.22663990 </v>
   <v>       0.00000000       0.50000000       0.22663990 </v>
   <v>       0.50000000       0.00000000       0.22663990 </v>
   <v>       0.50000000       0.50000000       0.22663990 </v>
   <v>       0.00000000       0.25000000       0.22663990 </v>
   <v>       0.00000000       0.75000000       0.22663990 </v>
   <v>       0.50000000       0.25000000       0.22663990 </v>
   <v>       0.50000000       0.75000000       0.22663990 </v>
   <v>       0.25000000       0.00000000       0.22663990 </v>
   <v>       0.25000000       0.50000000       0.22663990 </v>
   <v>       0.75000000       0.00000000       0.22663990 </v>
   <v>       0.75000000       0.50000000       0.22663990 </v>
   <v>       0.25000000       0.25000000       0.22663990 </v>
   <v>       0.25000000       0.75000000       0.22663990 </v>
   <v>       0.75000000       0.25000000       0.22663990 </v>
   <v>       0.75000000       0.75000000       0.22663990 </v>
   <v>       0.16666666       0.16666666       0.30218653 </v>
   <v>       0.16666666       0.66666666       0.30218653 </v>
   <v>       0.66666666       0.16666666       0.30218653 </v>
   <v>       0.66666666       0.66666666       0.30218653 </v>
   <v>       0.16666666       0.41666666       0.30218653 </v>
   <v>       0.16666666       0.91666666       0.30218653 </v>
   <v>       0.66666666       0.41666666       0.30218653 </v>
   <v>       0.66666666       0.91666666       0.30218653 </v>
   <v>       0.41666666       0.16666666       0.30218653 </v>
   <v>       0.41666666       0.66666666       0.30218653 </v>
   <v>       0.91666666       0.16666666       0.30218653 </v>
   <v>       0.91666666       0.66666666       0.30218653 </v>
   <v>       0.41666666       0.41666666       0.30218653 </v>
   <v>       0.41666666       0.91666666       0.30218653 </v>
   <v>       0.91666666       0.41666666       0.30218653 </v>
   <v>       0.91666666       0.91666666       0.30218653 </v>
   <v>       0.08333333       0.08333333       0.37716320 </v>
   <v>       0.08333333       0.58333333       0.37716320 </v>
   <v>       0.58333333       0.08333333       0.37716320 </v>
   <v>       0.58333333       0.58333333       0.37716320 </v>
   <v>       0.08351614       0.33324190       0.37729758 </v>
   <v>       0.08351614       0.83324190       0.37729758 </v>
   <v>       0.58351614       0.33324190       0.37729758 </v>
   <v>       0.58351614       0.83324190       0.37729758 </v>
   <v>       0.33324190       0.08351614       0.37729758 </v>
   <v>       0.33324190       0.58351614       0.37729758 </v>
   <v>       0.83324190       0.08351614       0.37729758 </v>
   <v>       0.83324190       0.58351614       0.37729758 </v>
   <v>       0.33324190       0.33324190       0.37729758 </v>
   <v>       0.33324190       0.83324190       0.37729758 </v>
   <v>       0.83324190       0.33324190       0.37729758 </v>
   <v>       0.83324190       0.83324190       0.37729758 </v>
   <v>       0.00012997       0.00012997       0.45242342 </v>
   <v>       0.00012997       0.50012997       0.45242342 </v>
   <v>       0.50012997       0.00012997       0.45242342 </v>
   <v>       0.50012997       0.50012997       0.45242342 </v>
   <v>       0.00012997       0.24974005       0.45242342 </v>
   <v>       0.00012997       0.74974005       0.45242342 </v>
   <v>       0.50012997       0.24974005       0.45242342 </v>
   <v>       0.50012997       0.74974005       0.45242342 </v>
   <v>       0.24974005       0.00012997       0.45242342 </v>
   <v>       0.24974005       0.50012997       0.45242342 </v>
   <v>       0.74974005       0.00012997       0.45242342 </v>
   <v>       0.74974005       0.50012997       0.45242342 </v>
   <v>       0.25000000       0.25000000       0.45288750 </v>
   <v>       0.25000000       0.75000000       0.45288750 </v>
   <v>       0.75000000       0.25000000       0.45288750 </v>
   <v>       0.75000000       0.75000000       0.45288750 </v>
   <v>       0.16660598       0.16660598       0.52813907 </v>
   <v>       0.16660598       0.66660598       0.52813907 </v>
   <v>       0.66660598       0.16660598       0.52813907 </v>
   <v>       0.66660598       0.66660598       0.52813907 </v>
   <v>       0.16660598       0.41678801       0.52813907 </v>
   <v>       0.16660598       0.91678801       0.52813907 </v>
   <v>       0.66660598       0.41678801       0.52813907 </v>
   <v>       0.66660598       0.91678801       0.52813907 </v>
   <v>       0.41678801       0.16660598       0.52813907 </v>
   <v>       0.41678801       0.66660598       0.52813907 </v>
   <v>       0.91678801       0.16660598       0.52813907 </v>
   <v>       0.91678801       0.66660598       0.52813907 </v>
   <v>       0.41666666       0.41666666       0.52741939 </v>
   <v>       0.41666666       0.91666666       0.52741939 </v>
   <v>       0.91666666       0.41666666       0.52741939 </v>
   <v>       0.91666666       0.91666666       0.52741939 </v>
   <v>       0.08195833       0.08333333       0.60202450 </v>
   <v>       0.08333333       0.58333333       0.60253339 </v>
   <v>       0.58333333       0.08333333       0.60253339 </v>
   <v>       0.58333333       0.58333333       0.60253339 </v>
   <v>       0.08130935       0.33434529       0.60320464 </v>
   <v>       0.08130935       0.83434529       0.60320464 </v>
   <v>       0.58130935       0.33434529       0.60320464 </v>
   <v>       0.58130935       0.83434529       0.60320464 </v>
   <v>       0.33434529       0.08130935       0.60320464 </v>
   <v>       0.33434529       0.58130935       0.60320464 </v>
   <v>       0.83434529       0.08130935       0.60320464 </v>
   <v>       0.83434529       0.58130935       0.60320464 </v>
   <v>       0.33434529       0.33434529       0.60320464 </v>
   <v>       0.33434529       0.83434529       0.60320464 </v>
   <v>       0.83434529       0.33434529       0.60320464 </v>
   <v>       0.83434529       0.83434529       0.60320464 </v>
   <v>       0.49714648       0.49714648       0.68057248 </v>
   <v>       0.49714648       0.99714648       0.68057248 </v>
   <v>       0.99714648       0.49714648       0.68057248 </v>
   <v>       0.99714648       0.99714648       0.68057248 </v>
   <v>       0.49714648       0.25570704       0.68057248 </v>
   <v>       0.49714648       0.75570704       0.68057248 </v>
   <v>       0.99714648       0.25570704       0.68057248 </v>
   <v>       0.99714648       0.75570704       0.68057248 </v>
   <v>       0.25570704       0.49714648       0.68057248 </v>
   <v>       0.25570704       0.99714648       0.68057248 </v>
   <v>       0.75570704       0.49714648       0.68057248 </v>
   <v>       0.75570704       0.99714648       0.68057248 </v>
   <v>       0.25000000       0.25000000       0.67480871 </v>
   <v>       0.25000000       0.75000000       0.67480871 </v>
   <v>       0.75000000       0.25000000       0.67480871 </v>
   <v>       0.75000000       0.75000000       0.67480871 </v>
   <v>       0.08333333       0.08333333       0.72043888 </v>
   <v>       0.08333333       0.58333333       0.72043888 </v>
   <v>       0.58333333       0.08333333       0.72043888 </v>
   <v>       0.58333333       0.58333333       0.72043888 </v>
  </varray>
 </structure>
</modeling>
