<?xml version="1.0" encoding="ISO-8859-1"?>
<modeling>
 <generator>
  <i name="program" type="string">vasp </i>
  <i name="version" type="string">5.4.4.18Apr17-6-g9f103f2a35  </i>
  <i name="subversion" type="string">(build Feb 09 2021 16:27:36) complex            parallel </i>
  <i name="platform" type="string">IFC15_impi </i>
  <i name="date" type="string">2021 04 29 </i>
  <i name="time" type="string">03:38:54 </i>
 </generator>
 <incar>
  <i type="int" name="ISTART">     0</i>
  <i type="string" name="PREC">a</i>
  <i type="logical" name="ADDGRID"> T  </i>
  <i type="int" name="NELM">   300</i>
  <i type="int" name="NELMIN">     5</i>
  <i type="int" name="IBRION">    -1</i>
  <i name="EDIFF">      0.00000001</i>
  <i name="ENCUT">    500.00000000</i>
  <i type="logical" name="LREAL"> F  </i>
  <i type="int" name="ISMEAR">     0</i>
  <i name="SIGMA">      0.05000000</i>
  <i type="logical" name="LWAVE"> F  </i>
  <i type="logical" name="LCHARG"> F  </i>
  <v type="int" name="KPOINT_BSE">    -1     0     0     0</v>
  <i type="int" name="NELM">   300</i>
  <i type="logical" name="LDIPOL"> T  </i>
  <i type="int" name="IDIPOL">     3</i>
 </incar>
 <structure name="primitive_cell" >
  <crystal>
   <varray name="basis" >
    <v>      17.03433609       0.00000000       0.00000000 </v>
    <v>      -8.51716805      14.75216779       0.00000000 </v>
    <v>       0.00000000       0.00000000      31.29407310 </v>
   </varray>
   <i name="volume">   7863.99353597 </i>
   <varray name="rec_basis" >
    <v>       0.05870496       0.03389332       0.00000000 </v>
    <v>       0.00000000       0.06778665       0.00000000 </v>
    <v>       0.00000000       0.00000000       0.03195493 </v>
   </varray>
  </crystal>
  <varray name="positions" >
   <v>       0.04937474       0.40040636      -0.00386556 </v>
   <v>       0.02661586      -0.44676828      -0.00509755 </v>
   <v>       0.02661586       0.22338414      -0.00509755 </v>
   <v>       0.25000000      -0.50000000      -0.00506925 </v>
   <v>      -0.14944771       0.39944771      -0.00431747 </v>
   <v>      -0.14944771       0.20110457      -0.00431747 </v>
   <v>       0.00060404      -0.49879191       0.07927097 </v>
   <v>       0.00060404       0.24939596       0.07927100 </v>
   <v>       0.25000000      -0.50000000       0.08094485 </v>
   <v>      -0.08333334       0.33333334       0.10951073 </v>
   <v>       0.16687125      -0.41687125       0.11114905 </v>
   <v>       0.16687125       0.33374251       0.11114905 </v>
   <v>       0.19676828      -0.27661586      -0.00509755 </v>
   <v>       0.19676828       0.22338414      -0.00509755 </v>
   <v>       0.35055229      -0.29889543      -0.00431747 </v>
   <v>       0.35055229       0.39944771      -0.00431747 </v>
   <v>      -0.25120809       0.24939596       0.07927100 </v>
   <v>      -0.30323172       0.22338414      -0.00509755 </v>
   <v>       0.02661586      -0.27661586      -0.00509755 </v>
   <v>       0.02661586       0.05323172      -0.00509755 </v>
   <v>       0.24879191      -0.25060404       0.07927100 </v>
   <v>       0.24879191       0.24939596       0.07927100 </v>
   <v>      -0.08374251      -0.41687125       0.11114905 </v>
   <v>      -0.08374251       0.08312875       0.11114905 </v>
   <v>      -0.25000000      -0.50000000      -0.00506925 </v>
   <v>      -0.25000000       0.00000000      -0.00506925 </v>
   <v>      -0.08333334       0.33333334       0.19342860 </v>
   <v>       0.41625749      -0.41687125       0.11114905 </v>
   <v>      -0.25000000      -0.50000000       0.08094485 </v>
   <v>      -0.25000000       0.00000000       0.08094485 </v>
   <v>       0.16660331      -0.41660330       0.19452973 </v>
   <v>       0.16660331       0.33320661       0.19452973 </v>
   <v>       0.00060404      -0.25060404       0.07927100 </v>
   <v>       0.00060404       0.00120809       0.07927097 </v>
   <v>      -0.33312875       0.33374251       0.11114905 </v>
   <v>      -0.33312875       0.08312875       0.11114905 </v>
   <v>       0.08333331       0.41666666       0.22222222 </v>
   <v>      -0.47338414      -0.27661586      -0.00509755 </v>
   <v>      -0.47338414      -0.44676828      -0.00509755 </v>
   <v>       0.35055229      -0.10055229      -0.00431747 </v>
   <v>      -0.14944771      -0.29889543      -0.00431747 </v>
   <v>       0.35055229       0.20110457      -0.00431747 </v>
   <v>      -0.14944771      -0.10055229      -0.00431747 </v>
   <v>      -0.49939596      -0.25060404       0.07927100 </v>
   <v>      -0.49939596      -0.49879191       0.07927097 </v>
   <v>       0.16687125      -0.16625749       0.11114905 </v>
   <v>       0.16687125       0.08312875       0.11114905 </v>
   <v>       0.41666666      -0.16666666       0.10951073 </v>
   <v>       0.41666666       0.33333334       0.10951073 </v>
   <v>      -0.08320661      -0.41660330       0.19452973 </v>
   <v>      -0.08320661       0.08339670       0.19452973 </v>
   <v>      -0.47338414       0.22338414      -0.00509755 </v>
   <v>      -0.47338414       0.05323172      -0.00509755 </v>
   <v>      -0.16666666       0.41666666       0.22222222 </v>
   <v>      -0.16666666       0.16666667       0.22222222 </v>
   <v>       0.41679339      -0.41660330       0.19452973 </v>
   <v>       0.08333331      -0.33333331       0.22222222 </v>
   <v>       0.08333331       0.16666669       0.22222222 </v>
   <v>       0.33333334      -0.33333333       0.22222222 </v>
   <v>       0.33333334       0.41666666       0.22222222 </v>
   <v>       0.04889542      -0.10055229      -0.00431747 </v>
   <v>      -0.45110458      -0.10055229      -0.00431747 </v>
   <v>      -0.45110458       0.39944771      -0.00431747 </v>
   <v>      -0.33339669       0.33320661       0.19452973 </v>
   <v>      -0.33339669       0.08339670       0.19452973 </v>
   <v>      -0.49939596       0.24939596       0.07927100 </v>
   <v>      -0.49939596       0.00120809       0.07927097 </v>
   <v>       0.25000000       0.00000000      -0.00506925 </v>
   <v>       0.16660331      -0.16679339       0.19452973 </v>
   <v>       0.16660331       0.08339670       0.19452973 </v>
   <v>      -0.33312875      -0.41687125       0.11114905 </v>
   <v>       0.41666666      -0.16666666       0.19342860 </v>
   <v>      -0.33312875      -0.16625749       0.11114905 </v>
   <v>       0.41666666       0.33333334       0.19342860 </v>
   <v>       0.25000000       0.00000000       0.08094485 </v>
   <v>      -0.08333334      -0.16666666       0.10951073 </v>
   <v>      -0.30323172      -0.27661586      -0.00509755 </v>
   <v>       0.08333331       0.41666666       0.30555555 </v>
   <v>      -0.41666669       0.16666669       0.22222222 </v>
   <v>      -0.25120809      -0.25060404       0.07927100 </v>
   <v>       0.41625749       0.08312875       0.11114905 </v>
   <v>      -0.16666666      -0.33333333       0.22222222 </v>
   <v>      -0.16666666      -0.08333334       0.22222222 </v>
   <v>       0.33333334      -0.08333334       0.22222222 </v>
   <v>      -0.16666666       0.41666666       0.30555555 </v>
   <v>      -0.16666666       0.16666667       0.30555555 </v>
   <v>       0.33333334       0.16666667       0.22222222 </v>
   <v>      -0.33339669      -0.41660330       0.19452973 </v>
   <v>      -0.33339669      -0.16679339       0.19452973 </v>
   <v>       0.08333331      -0.33333331       0.30555555 </v>
   <v>      -0.41666669      -0.33333331       0.22222222 </v>
   <v>       0.08333331       0.16666669       0.30555555 </v>
   <v>      -0.08333334      -0.16666666       0.19342860 </v>
   <v>      -0.41666669       0.41666666       0.22222222 </v>
   <v>      -0.41666669      -0.08333334       0.22222222 </v>
   <v>       0.33333334      -0.33333333       0.30555555 </v>
   <v>       0.33333334       0.41666666       0.30555555 </v>
   <v>       0.00000000      -0.50000000       0.33333334 </v>
   <v>       0.00000000       0.25000000       0.33333334 </v>
   <v>       0.25000000      -0.50000000       0.33333334 </v>
   <v>       0.08333331      -0.08333334       0.22222222 </v>
   <v>       0.41679339       0.08339670       0.19452973 </v>
   <v>      -0.25000000       0.25000000       0.33333334 </v>
   <v>       0.25000000      -0.25000000       0.33333334 </v>
   <v>       0.25000000       0.25000000       0.33333334 </v>
   <v>      -0.41666669       0.16666669       0.30555555 </v>
   <v>      -0.16666666      -0.33333333       0.30555555 </v>
   <v>      -0.16666666      -0.08333334       0.30555555 </v>
   <v>      -0.25000000      -0.50000000       0.33333334 </v>
   <v>      -0.25000000       0.00000000       0.33333334 </v>
   <v>       0.33333334      -0.08333334       0.30555555 </v>
   <v>       0.33333334       0.16666667       0.30555555 </v>
   <v>       0.00000000      -0.25000000       0.33333334 </v>
   <v>       0.00000000       0.00000000       0.33333334 </v>
   <v>      -0.41666669      -0.33333331       0.30555555 </v>
   <v>      -0.41666669       0.41666666       0.30555555 </v>
   <v>      -0.41666669      -0.08333334       0.30555555 </v>
   <v>      -0.50000000      -0.25000000       0.33333334 </v>
   <v>      -0.50000000      -0.50000000       0.33333334 </v>
   <v>       0.08333331      -0.08333334       0.30555555 </v>
   <v>       0.00000000      -0.50000000       0.41666666 </v>
   <v>       0.00000000       0.25000000       0.41666666 </v>
   <v>      -0.50000000       0.25000000       0.33333334 </v>
   <v>      -0.50000000       0.00000000       0.33333334 </v>
   <v>       0.25000000      -0.50000000       0.41666666 </v>
   <v>       0.25000000       0.00000000       0.33333334 </v>
   <v>      -0.25000000       0.25000000       0.41666666 </v>
   <v>       0.25000000      -0.25000000       0.41666666 </v>
   <v>       0.25000000       0.25000000       0.41666666 </v>
   <v>      -0.08333334       0.33333334       0.44444445 </v>
   <v>      -0.25000000      -0.25000000       0.33333334 </v>
   <v>       0.16666667      -0.41666666       0.44444445 </v>
   <v>       0.16666667       0.33333334       0.44444445 </v>
   <v>      -0.25000000      -0.50000000       0.41666666 </v>
   <v>      -0.25000000       0.00000000       0.41666666 </v>
   <v>       0.00000000      -0.25000000       0.41666666 </v>
   <v>       0.00000000       0.00000000       0.41666666 </v>
   <v>      -0.08333334      -0.41666666       0.44444445 </v>
   <v>      -0.08333334       0.08333334       0.44444445 </v>
   <v>      -0.50000000      -0.25000000       0.41666666 </v>
   <v>      -0.50000000      -0.50000000       0.41666666 </v>
   <v>       0.41666666      -0.41666666       0.44444445 </v>
   <v>      -0.33333333       0.33333334       0.44444445 </v>
   <v>      -0.33333333       0.08333334       0.44444445 </v>
   <v>       0.16666667      -0.16666666       0.44444445 </v>
   <v>       0.16666667       0.08333334       0.44444445 </v>
   <v>      -0.50000000       0.25000000       0.41666666 </v>
   <v>      -0.50000000       0.00000000       0.41666666 </v>
   <v>       0.41666666      -0.16666666       0.44444445 </v>
   <v>       0.41666666       0.33333334       0.44444445 </v>
   <v>      -0.08333334       0.33333334      -0.49992920 </v>
   <v>       0.16666667      -0.41666666      -0.49992920 </v>
   <v>       0.16666667       0.33333334      -0.49992920 </v>
   <v>       0.25000000       0.00000000       0.41666666 </v>
   <v>      -0.08333334      -0.41666666      -0.49992920 </v>
   <v>      -0.08333334       0.08333334      -0.49992920 </v>
   <v>      -0.25000000      -0.25000000       0.41666666 </v>
   <v>      -0.33333333      -0.41666666       0.44444445 </v>
   <v>      -0.33333333      -0.16666666       0.44444445 </v>
   <v>       0.41666666      -0.41666666      -0.49992920 </v>
   <v>      -0.08333334      -0.16666666       0.44444445 </v>
   <v>      -0.33333333       0.33333334      -0.49992920 </v>
   <v>      -0.33333333       0.08333334      -0.49992920 </v>
   <v>       0.41666666       0.08333334       0.44444445 </v>
   <v>       0.16666667      -0.16666666      -0.49992920 </v>
   <v>       0.16666667       0.08333334      -0.49992920 </v>
   <v>       0.41666666      -0.16666666      -0.49992920 </v>
   <v>       0.41666666       0.33333334      -0.49992920 </v>
   <v>      -0.33333333      -0.41666666      -0.49992920 </v>
   <v>      -0.33333333      -0.16666666      -0.49992920 </v>
   <v>      -0.08333334      -0.16666666      -0.49992920 </v>
   <v>       0.41666666       0.08333334      -0.49992920 </v>
  </varray>
 </structure>
 <varray name="primitive_index" >
  <v type="int" >        1 </v>
  <v type="int" >       14 </v>
  <v type="int" >       25 </v>
  <v type="int" >       22 </v>
  <v type="int" >        7 </v>
  <v type="int" >       11 </v>
  <v type="int" >       94 </v>
  <v type="int" >       97 </v>
  <v type="int" >      102 </v>
  <v type="int" >       39 </v>
  <v type="int" >       42 </v>
  <v type="int" >       29 </v>
  <v type="int" >       18 </v>
  <v type="int" >       17 </v>
  <v type="int" >       10 </v>
  <v type="int" >        5 </v>
  <v type="int" >      107 </v>
  <v type="int" >       19 </v>
  <v type="int" >       26 </v>
  <v type="int" >       13 </v>
  <v type="int" >      106 </v>
  <v type="int" >      105 </v>
  <v type="int" >       36 </v>
  <v type="int" >       35 </v>
  <v type="int" >       24 </v>
  <v type="int" >       23 </v>
  <v type="int" >      119 </v>
  <v type="int" >       34 </v>
  <v type="int" >      104 </v>
  <v type="int" >      103 </v>
  <v type="int" >      114 </v>
  <v type="int" >      109 </v>
  <v type="int" >       98 </v>
  <v type="int" >       93 </v>
  <v type="int" >       31 </v>
  <v type="int" >       43 </v>
  <v type="int" >       49 </v>
  <v type="int" >       28 </v>
  <v type="int" >       16 </v>
  <v type="int" >        6 </v>
  <v type="int" >       12 </v>
  <v type="int" >        9 </v>
  <v type="int" >        8 </v>
  <v type="int" >      100 </v>
  <v type="int" >       96 </v>
  <v type="int" >       30 </v>
  <v type="int" >       41 </v>
  <v type="int" >       38 </v>
  <v type="int" >       37 </v>
  <v type="int" >      124 </v>
  <v type="int" >      123 </v>
  <v type="int" >       27 </v>
  <v type="int" >       15 </v>
  <v type="int" >       59 </v>
  <v type="int" >       47 </v>
  <v type="int" >      122 </v>
  <v type="int" >       54 </v>
  <v type="int" >       53 </v>
  <v type="int" >       46 </v>
  <v type="int" >       57 </v>
  <v type="int" >        2 </v>
  <v type="int" >        4 </v>
  <v type="int" >        3 </v>
  <v type="int" >      111 </v>
  <v type="int" >      115 </v>
  <v type="int" >       99 </v>
  <v type="int" >       95 </v>
  <v type="int" >       21 </v>
  <v type="int" >      110 </v>
  <v type="int" >      113 </v>
  <v type="int" >       44 </v>
  <v type="int" >      118 </v>
  <v type="int" >       32 </v>
  <v type="int" >      117 </v>
  <v type="int" >      101 </v>
  <v type="int" >       40 </v>
  <v type="int" >       20 </v>
  <v type="int" >      137 </v>
  <v type="int" >       55 </v>
  <v type="int" >      108 </v>
  <v type="int" >       33 </v>
  <v type="int" >       48 </v>
  <v type="int" >       60 </v>
  <v type="int" >       58 </v>
  <v type="int" >      131 </v>
  <v type="int" >      127 </v>
  <v type="int" >       45 </v>
  <v type="int" >      116 </v>
  <v type="int" >      112 </v>
  <v type="int" >      134 </v>
  <v type="int" >       56 </v>
  <v type="int" >      133 </v>
  <v type="int" >      120 </v>
  <v type="int" >       51 </v>
  <v type="int" >       52 </v>
  <v type="int" >      126 </v>
  <v type="int" >      129 </v>
  <v type="int" >       62 </v>
  <v type="int" >       73 </v>
  <v type="int" >       70 </v>
  <v type="int" >       50 </v>
  <v type="int" >      121 </v>
  <v type="int" >       67 </v>
  <v type="int" >       66 </v>
  <v type="int" >       65 </v>
  <v type="int" >      135 </v>
  <v type="int" >      128 </v>
  <v type="int" >      132 </v>
  <v type="int" >       72 </v>
  <v type="int" >       71 </v>
  <v type="int" >      130 </v>
  <v type="int" >      125 </v>
  <v type="int" >       74 </v>
  <v type="int" >       61 </v>
  <v type="int" >      136 </v>
  <v type="int" >      139 </v>
  <v type="int" >      140 </v>
  <v type="int" >       76 </v>
  <v type="int" >       64 </v>
  <v type="int" >      138 </v>
  <v type="int" >      142 </v>
  <v type="int" >      145 </v>
  <v type="int" >       75 </v>
  <v type="int" >       63 </v>
  <v type="int" >      150 </v>
  <v type="int" >       69 </v>
  <v type="int" >      155 </v>
  <v type="int" >      154 </v>
  <v type="int" >      153 </v>
  <v type="int" >       87 </v>
  <v type="int" >       68 </v>
  <v type="int" >       90 </v>
  <v type="int" >       77 </v>
  <v type="int" >      152 </v>
  <v type="int" >      151 </v>
  <v type="int" >      146 </v>
  <v type="int" >      141 </v>
  <v type="int" >       84 </v>
  <v type="int" >       83 </v>
  <v type="int" >      148 </v>
  <v type="int" >      144 </v>
  <v type="int" >       82 </v>
  <v type="int" >       79 </v>
  <v type="int" >       91 </v>
  <v type="int" >       78 </v>
  <v type="int" >       89 </v>
  <v type="int" >      147 </v>
  <v type="int" >      143 </v>
  <v type="int" >       86 </v>
  <v type="int" >       85 </v>
  <v type="int" >      167 </v>
  <v type="int" >      162 </v>
  <v type="int" >      157 </v>
  <v type="int" >      149 </v>
  <v type="int" >      172 </v>
  <v type="int" >      171 </v>
  <v type="int" >      156 </v>
  <v type="int" >       92 </v>
  <v type="int" >       80 </v>
  <v type="int" >      170 </v>
  <v type="int" >       88 </v>
  <v type="int" >      159 </v>
  <v type="int" >      163 </v>
  <v type="int" >       81 </v>
  <v type="int" >      158 </v>
  <v type="int" >      161 </v>
  <v type="int" >      166 </v>
  <v type="int" >      165 </v>
  <v type="int" >      164 </v>
  <v type="int" >      160 </v>
  <v type="int" >      168 </v>
  <v type="int" >      169 </v>
 </varray>
 <kpoints>
  <generation param="Gamma">
   <v type="int" name="divisions">       3        3        1 </v>
   <v name="usershift">      0.00000000       0.00000000       0.00000000 </v>
   <v name="genvec1">      0.33333333      -0.00000000       0.00000000 </v>
   <v name="genvec2">      0.00000000       0.33333333       0.00000000 </v>
   <v name="genvec3">      0.00000000       0.00000000       1.00000000 </v>
   <v name="shift">      0.00000000       0.00000000       0.00000000 </v>
  </generation>
  <varray name="kpointlist" >
   <v>       0.00000000       0.00000000       0.00000000 </v>
   <v>       0.33333333      -0.00000000       0.00000000 </v>
   <v>       0.00000000       0.33333333       0.00000000 </v>
   <v>       0.33333333       0.33333333       0.00000000 </v>
   <v>      -0.33333333       0.33333333       0.00000000 </v>
  </varray>
  <varray name="weights" >
   <v>       0.11111111 </v>
   <v>       0.22222222 </v>
   <v>       0.22222222 </v>
   <v>       0.22222222 </v>
   <v>       0.22222222 </v>
  </varray>
 </kpoints>
 <parameters>
  <separator name="general" >
   <i type="string" name="SYSTEM">unknown system</i>
   <i type="logical" name="LCOMPAT"> F  </i>
  </separator>
  <separator name="electronic" >
   <i type="string" name="PREC">a</i>
   <i name="ENMAX">    500.00000000</i>
   <i name="ENAUG">    462.75800000</i>
   <i name="EDIFF">      0.00000001</i>
   <i type="int" name="IALGO">    38</i>
   <i type="int" name="IWAVPR">    10</i>
   <i type="int" name="NBANDS">   924</i>
   <i name="NELECT">   1536.00000000</i>
   <i type="int" name="TURBO">     0</i>
   <i type="int" name="IRESTART">     0</i>
   <i type="int" name="NREBOOT">     0</i>
   <i type="int" name="NMIN">     0</i>
   <i name="EREF">      0.00000000</i>
   <separator name="electronic smearing" >
    <i type="int" name="ISMEAR">     0</i>
    <i name="SIGMA">      0.05000000</i>
    <i name="KSPACING">      0.50000000</i>
    <i type="logical" name="KGAMMA"> T  </i>
   </separator>
   <separator name="electronic projectors" >
    <i type="logical" name="LREAL"> F  </i>
    <v name="ROPT">      0.00000000      0.00000000      0.00000000</v>
    <i type="int" name="LMAXPAW">  -100</i>
    <i type="int" name="LMAXMIX">     2</i>
    <i type="logical" name="NLSPLINE"> F  </i>
   </separator>
   <separator name="electronic startup" >
    <i type="int" name="ISTART">     0</i>
    <i type="int" name="ICHARG">     2</i>
    <i type="int" name="INIWAV">     1</i>
   </separator>
   <separator name="electronic spin" >
    <i type="int" name="ISPIN">     1</i>
    <i type="logical" name="LNONCOLLINEAR"> F  </i>
    <v name="MAGMOM">      1.00000000      1.00000000      1.00000000      1.00000000      1.00000000      1.00000000      1.00000000      1.00000000      1.00000000      1.00000000      1.00000000      1.00000000      1.00000000      1.00000000      1.00000000      1.00000000      1.00000000      1.00000000      1.00000000      1.00000000
      1.00000000      1.00000000      1.00000000      1.00000000      1.00000000      1.00000000      1.00000000      1.00000000      1.00000000      1.00000000      1.00000000      1.00000000      1.00000000      1.00000000      1.00000000      1.00000000      1.00000000      1.00000000      1.00000000      1.00000000
      1.00000000      1.00000000      1.00000000      1.00000000      1.00000000      1.00000000      1.00000000      1.00000000      1.00000000      1.00000000      1.00000000      1.00000000      1.00000000      1.00000000      1.00000000      1.00000000      1.00000000      1.00000000      1.00000000      1.00000000
      1.00000000      1.00000000      1.00000000      1.00000000      1.00000000      1.00000000      1.00000000      1.00000000      1.00000000      1.00000000      1.00000000      1.00000000      1.00000000      1.00000000      1.00000000      1.00000000      1.00000000      1.00000000      1.00000000      1.00000000
      1.00000000      1.00000000      1.00000000      1.00000000      1.00000000      1.00000000      1.00000000      1.00000000      1.00000000      1.00000000      1.00000000      1.00000000      1.00000000      1.00000000      1.00000000      1.00000000      1.00000000      1.00000000      1.00000000      1.00000000
      1.00000000      1.00000000      1.00000000      1.00000000      1.00000000      1.00000000      1.00000000      1.00000000      1.00000000      1.00000000      1.00000000      1.00000000      1.00000000      1.00000000      1.00000000      1.00000000      1.00000000      1.00000000      1.00000000      1.00000000
      1.00000000      1.00000000      1.00000000      1.00000000      1.00000000      1.00000000      1.00000000      1.00000000      1.00000000      1.00000000      1.00000000      1.00000000      1.00000000      1.00000000      1.00000000      1.00000000      1.00000000      1.00000000      1.00000000      1.00000000
      1.00000000      1.00000000      1.00000000      1.00000000      1.00000000      1.00000000      1.00000000      1.00000000      1.00000000      1.00000000      1.00000000      1.00000000      1.00000000      1.00000000      1.00000000      1.00000000      1.00000000      1.00000000      1.00000000      1.00000000
      1.00000000      1.00000000      1.00000000      1.00000000      1.00000000      1.00000000      1.00000000      1.00000000      1.00000000      1.00000000      1.00000000      1.00000000</v>
    <i name="NUPDOWN">     -1.00000000</i>
    <i type="logical" name="LSORBIT"> F  </i>
    <v name="SAXIS">      0.00000000      0.00000000      1.00000000</v>
    <i type="logical" name="LSPIRAL"> F  </i>
    <v name="QSPIRAL">      0.00000000      0.00000000      0.00000000</v>
    <i type="logical" name="LZEROZ"> F  </i>
   </separator>
   <separator name="electronic exchange-correlation" >
    <i type="logical" name="LASPH"> F  </i>
    <i type="logical" name="LMETAGGA"> F  </i>
   </separator>
   <separator name="electronic convergence" >
    <i type="int" name="NELM">   300</i>
    <i type="int" name="NELMDL">    -5</i>
    <i type="int" name="NELMIN">     5</i>
    <i name="ENINI">    500.00000000</i>
    <separator name="electronic convergence detail" >
     <i type="logical" name="LDIAG"> T  </i>
     <i type="logical" name="LSUBROT"> F  </i>
     <i name="WEIMIN">      0.00000000</i>
     <i name="EBREAK">      0.00000000</i>
     <i name="DEPER">      0.30000000</i>
     <i type="int" name="NRMM">     4</i>
     <i name="TIME">      0.40000000</i>
    </separator>
   </separator>
   <separator name="electronic mixer" >
    <i name="AMIX">      0.40000000</i>
    <i name="BMIX">      1.00000000</i>
    <i name="AMIN">      0.10000000</i>
    <i name="AMIX_MAG">      1.60000000</i>
    <i name="BMIX_MAG">      1.00000000</i>
    <separator name="electronic mixer details" >
     <i type="int" name="IMIX">     4</i>
     <i type="logical" name="MIXFIRST"> F  </i>
     <i type="int" name="MAXMIX">   -45</i>
     <i name="WC">    100.00000000</i>
     <i type="int" name="INIMIX">     1</i>
     <i type="int" name="MIXPRE">     1</i>
     <i type="int" name="MREMOVE">     5</i>
    </separator>
   </separator>
   <separator name="electronic dipolcorrection" >
    <i type="logical" name="LDIPOL"> T  </i>
    <i type="logical" name="LMONO"> F  </i>
    <i type="int" name="IDIPOL">     3</i>
    <i name="EPSILON">      1.00000000</i>
    <v name="DIPOL">   -100.00000000   -100.00000000   -100.00000000</v>
    <i name="EFIELD">      0.00000000</i>
   </separator>
  </separator>
  <separator name="grids" >
   <i type="int" name="NGX">   126</i>
   <i type="int" name="NGY">   126</i>
   <i type="int" name="NGZ">   240</i>
   <i type="int" name="NGXF">   252</i>
   <i type="int" name="NGYF">   252</i>
   <i type="int" name="NGZF">   480</i>
   <i type="logical" name="ADDGRID"> T  </i>
  </separator>
  <separator name="ionic" >
   <i type="int" name="NSW">     0</i>
   <i type="int" name="IBRION">    -1</i>
   <i type="int" name="MDALGO">     0</i>
   <i type="int" name="ISIF">     2</i>
   <i name="PSTRESS">      0.00000000</i>
   <i name="EDIFFG">      0.00000010</i>
   <i type="int" name="NFREE">     0</i>
   <i name="POTIM">      0.50000000</i>
   <i name="SMASS">     -3.00000000</i>
   <i name="SCALEE">      1.00000000</i>
  </separator>
  <separator name="ionic md" >
   <i name="TEBEG">      0.00010000</i>
   <i name="TEEND">      0.00010000</i>
   <i type="int" name="NBLOCK">     1</i>
   <i type="int" name="KBLOCK">     1</i>
   <i type="int" name="NPACO">   256</i>
   <i name="APACO">     16.00000000</i>
  </separator>
  <separator name="symmetry" >
   <i type="int" name="ISYM">     2</i>
   <i name="SYMPREC">      0.00001000</i>
  </separator>
  <separator name="dos" >
   <i type="int" name="LORBIT">     0</i>
   <v name="RWIGS">     -1.00000000     -1.00000000     -1.00000000</v>
   <i type="int" name="NEDOS">   301</i>
   <i name="EMIN">     10.00000000</i>
   <i name="EMAX">    -10.00000000</i>
   <i name="EFERMI">      0.00000000</i>
  </separator>
  <separator name="writing" >
   <i type="int" name="NWRITE">     2</i>
   <i type="logical" name="LWAVE"> F  </i>
   <i type="logical" name="LDOWNSAMPLE"> F  </i>
   <i type="logical" name="LCHARG"> F  </i>
   <i type="logical" name="LPARD"> F  </i>
   <i type="logical" name="LVTOT"> F  </i>
   <i type="logical" name="LVHAR"> F  </i>
   <i type="logical" name="LELF"> F  </i>
   <i type="logical" name="LOPTICS"> F  </i>
   <v name="STM">      0.00000000      0.00000000      0.00000000      0.00000000      0.00000000      0.00000000      0.00000000</v>
  </separator>
  <separator name="performance" >
   <i type="int" name="NPAR">     4</i>
   <i type="int" name="NSIM">     4</i>
   <i type="int" name="NBLK">    -1</i>
   <i type="logical" name="LPLANE"> T  </i>
   <i type="logical" name="LSCALAPACK"> F  </i>
   <i type="logical" name="LSCAAWARE"> F  </i>
   <i type="logical" name="LSCALU"> F  </i>
   <i type="logical" name="LASYNC"> F  </i>
   <i type="logical" name="LORBITALREAL"> F  </i>
  </separator>
  <separator name="miscellaneous" >
   <i type="int" name="IDIOT">     3</i>
   <i type="int" name="ISPECIAL">     0</i>
   <i type="logical" name="LMUSIC"> F  </i>
   <v name="POMASS">    114.82000000     74.92200000      1.00000000</v>
   <v name="DARWINR">      0.00000000      0.00000000      0.00000000</v>
   <v name="DARWINV">      1.00000000      1.00000000      1.00000000</v>
   <i type="logical" name="LCORR"> T  </i>
  </separator>
  <i type="logical" name="GGA_COMPAT"> T  </i>
  <i type="logical" name="LBERRY"> F  </i>
  <i type="int" name="ICORELEVEL">     0</i>
  <i type="logical" name="LDAU"> F  </i>
  <i type="int" name="I_CONSTRAINED_M">     0</i>
  <separator name="electronic exchange-correlation" >
   <i type="string" name="GGA">--</i>
   <i type="int" name="VOSKOWN">     0</i>
   <i type="logical" name="LHFCALC"> F  </i>
   <i type="string" name="PRECFOCK"></i>
   <i type="logical" name="LSYMGRAD"> F  </i>
   <i type="logical" name="LHFONE"> F  </i>
   <i type="logical" name="LRHFCALC"> F  </i>
   <i type="logical" name="LTHOMAS"> F  </i>
   <i type="logical" name="LMODELHF"> F  </i>
   <i name="ENCUT4O">     -1.00000000</i>
   <i type="int" name="EXXOEP">     0</i>
   <i type="int" name="FOURORBIT">     0</i>
   <i name="AEXX">      0.00000000</i>
   <i name="HFALPHA">      0.00000000</i>
   <i name="MCALPHA">      0.00000000</i>
   <i name="ALDAX">      1.00000000</i>
   <i name="AGGAX">      1.00000000</i>
   <i name="ALDAC">      1.00000000</i>
   <i name="AGGAC">      1.00000000</i>
   <i type="int" name="NKREDX">     1</i>
   <i type="int" name="NKREDY">     1</i>
   <i type="int" name="NKREDZ">     1</i>
   <i type="logical" name="SHIFTRED"> F  </i>
   <i type="logical" name="ODDONLY"> F  </i>
   <i type="logical" name="EVENONLY"> F  </i>
   <i type="int" name="LMAXFOCK">     0</i>
   <i type="int" name="NMAXFOCKAE">     0</i>
   <i type="logical" name="LFOCKAEDFT"> F  </i>
   <i name="HFSCREEN">      0.00000000</i>
   <i name="HFSCREENC">      0.00000000</i>
   <i type="int" name="NBANDSGWLOW">     0</i>
  </separator>
  <separator name="vdW DFT" >
   <i type="logical" name="LUSE_VDW"> F  </i>
   <i name="Zab_VDW">     -0.84910000</i>
   <i name="PARAM1">      0.12340000</i>
   <i name="PARAM2">      1.00000000</i>
   <i name="PARAM3">      0.00000000</i>
  </separator>
  <separator name="model GW" >
   <i type="int" name="MODEL_GW">     0</i>
   <i name="MODEL_EPS0">     27.43253559</i>
   <i name="MODEL_ALPHA">      1.00000000</i>
  </separator>
  <separator name="linear response parameters" >
   <i type="logical" name="LEPSILON"> F  </i>
   <i type="logical" name="LRPA"> F  </i>
   <i type="logical" name="LNABLA"> F  </i>
   <i type="logical" name="LVEL"> F  </i>
   <i type="int" name="KINTER">     0</i>
   <i name="CSHIFT">      0.10000000</i>
   <i name="OMEGAMAX">     -1.00000000</i>
   <i name="DEG_THRESHOLD">      0.00200000</i>
   <i name="RTIME">     -0.10000000</i>
   <i name="WPLASMAI">      0.00000000</i>
   <v name="DFIELD">      0.00000000      0.00000000      0.00000000</v>
   <v name="WPLASMA">      0.00000000      0.00000000      0.00000000      0.00000000      0.00000000      0.00000000      0.00000000      0.00000000      0.00000000</v>
  </separator>
  <separator name="orbital magnetization" >
   <i type="logical" name="NUCIND"> F  </i>
   <v name="MAGPOS">      0.00000000      0.00000000      0.00000000</v>
   <i type="logical" name="LNICSALL"> T  </i>
   <i type="logical" name="ORBITALMAG"> F  </i>
   <i type="logical" name="LMAGBLOCH"> F  </i>
   <i type="logical" name="LCHIMAG"> F  </i>
   <i type="logical" name="LGAUGE"> T  </i>
   <i type="int" name="MAGATOM">     0</i>
   <v name="MAGDIPOL">      0.00000000      0.00000000      0.00000000</v>
   <v name="AVECCONST">      0.00000000      0.00000000      0.00000000</v>
  </separator>
  <separator name="response functions" >
   <i type="logical" name="LADDER"> F  </i>
   <i type="logical" name="LRPAFORCE"> F  </i>
   <i type="logical" name="LFXC"> F  </i>
   <i type="logical" name="LHARTREE"> T  </i>
   <i type="int" name="IBSE">     0</i>
   <v type="int" name="KPOINT">    -1     0     0     0</v>
   <i type="logical" name="LTCTE"> F  </i>
   <i type="logical" name="LTETE"> F  </i>
   <i type="logical" name="LTRIPLET"> F  </i>
   <i type="logical" name="LFXCEPS"> F  </i>
   <i type="logical" name="LFXHEG"> F  </i>
   <i type="int" name="NATURALO">     2</i>
   <i type="logical" name="L2ORDER"> F  </i>
   <i type="logical" name="LMP2LT"> F  </i>
   <i type="logical" name="LUSEW"> F  </i>
   <i name="ENCUTGW">     -2.00000000</i>
   <i name="ENCUTGWSOFT">     -2.00000000</i>
   <i name="ENCUTLF">     -1.00000000</i>
   <i type="int" name="LMAXMP2">    -1</i>
   <i name="SCISSOR">      0.00000000</i>
   <i type="int" name="NOMEGA">     0</i>
   <i type="int" name="NOMEGAR">     0</i>
   <i type="int" name="NBANDSGW">    -1</i>
   <i type="int" name="NBANDSO">    -1</i>
   <i type="int" name="NBANDSV">    -1</i>
   <i type="int" name="NELM">   300</i>
   <i type="int" name="NELMHF">     1</i>
   <i type="int" name="DIM">     3</i>
   <i type="int" name="ANTIRES">     0</i>
   <i name="OMEGAMAX">    -30.00000000</i>
   <i name="OMEGAMIN">    -30.00000000</i>
   <i name="OMEGATL">   -200.00000000</i>
   <i type="int" name="OMEGAGRID">   140</i>
   <i name="CSHIFT">     -0.10000000</i>
   <i type="logical" name="SELFENERGY"> F  </i>
   <i type="logical" name="LSPECTRAL"> F  </i>
   <i type="logical" name="LSPECTRALGW"> F  </i>
   <i type="logical" name="LSINGLES"> F  </i>
   <i type="logical" name="LFERMIGW"> F  </i>
   <i type="logical" name="ODDONLYGW"> F  </i>
   <i type="logical" name="EVENONLYGW"> F  </i>
   <i type="int" name="NKREDLFX">     1</i>
   <i type="int" name="NKREDLFY">     1</i>
   <i type="int" name="NKREDLFZ">     1</i>
   <i type="int" name="MAXMEM">  2800</i>
   <i type="int" name="TELESCOPE">     0</i>
   <i type="int" name="TAUPAR">     1</i>
   <i type="int" name="OMEGAPAR">    -1</i>
   <i name="LAMBDA">      1.00000000</i>
  </separator>
  <separator name="External order field" >
   <i name="OFIELD_KAPPA">      0.00000000</i>
   <v name="OFIELD_K">      0.00000000      0.00000000      0.00000000</v>
   <i name="OFIELD_Q6_NEAR">      0.00000000</i>
   <i name="OFIELD_Q6_FAR">      0.00000000</i>
   <i name="OFIELD_A">      0.00000000</i>
  </separator>
 </parameters>
 <atominfo>
  <atoms>     172 </atoms>
  <types>       3 </types>
  <array name="atoms" >
   <dimension dim="1">ion</dimension>
   <field type="string">element</field>
   <field type="int">atomtype</field>
   <set>
    <rc><c>In</c><c>   1</c></rc>
    <rc><c>In</c><c>   1</c></rc>
    <rc><c>In</c><c>   1</c></rc>
    <rc><c>In</c><c>   1</c></rc>
    <rc><c>In</c><c>   1</c></rc>
    <rc><c>In</c><c>   1</c></rc>
    <rc><c>In</c><c>   1</c></rc>
    <rc><c>In</c><c>   1</c></rc>
    <rc><c>In</c><c>   1</c></rc>
    <rc><c>In</c><c>   1</c></rc>
    <rc><c>In</c><c>   1</c></rc>
    <rc><c>In</c><c>   1</c></rc>
    <rc><c>In</c><c>   1</c></rc>
    <rc><c>In</c><c>   1</c></rc>
    <rc><c>In</c><c>   1</c></rc>
    <rc><c>In</c><c>   1</c></rc>
    <rc><c>In</c><c>   1</c></rc>
    <rc><c>In</c><c>   1</c></rc>
    <rc><c>In</c><c>   1</c></rc>
    <rc><c>In</c><c>   1</c></rc>
    <rc><c>In</c><c>   1</c></rc>
    <rc><c>In</c><c>   1</c></rc>
    <rc><c>In</c><c>   1</c></rc>
    <rc><c>In</c><c>   1</c></rc>
    <rc><c>In</c><c>   1</c></rc>
    <rc><c>In</c><c>   1</c></rc>
    <rc><c>In</c><c>   1</c></rc>
    <rc><c>In</c><c>   1</c></rc>
    <rc><c>In</c><c>   1</c></rc>
    <rc><c>In</c><c>   1</c></rc>
    <rc><c>In</c><c>   1</c></rc>
    <rc><c>In</c><c>   1</c></rc>
    <rc><c>In</c><c>   1</c></rc>
    <rc><c>In</c><c>   1</c></rc>
    <rc><c>In</c><c>   1</c></rc>
    <rc><c>In</c><c>   1</c></rc>
    <rc><c>In</c><c>   1</c></rc>
    <rc><c>In</c><c>   1</c></rc>
    <rc><c>In</c><c>   1</c></rc>
    <rc><c>In</c><c>   1</c></rc>
    <rc><c>In</c><c>   1</c></rc>
    <rc><c>In</c><c>   1</c></rc>
    <rc><c>In</c><c>   1</c></rc>
    <rc><c>In</c><c>   1</c></rc>
    <rc><c>In</c><c>   1</c></rc>
    <rc><c>In</c><c>   1</c></rc>
    <rc><c>In</c><c>   1</c></rc>
    <rc><c>In</c><c>   1</c></rc>
    <rc><c>In</c><c>   1</c></rc>
    <rc><c>In</c><c>   1</c></rc>
    <rc><c>In</c><c>   1</c></rc>
    <rc><c>In</c><c>   1</c></rc>
    <rc><c>In</c><c>   1</c></rc>
    <rc><c>In</c><c>   1</c></rc>
    <rc><c>In</c><c>   1</c></rc>
    <rc><c>In</c><c>   1</c></rc>
    <rc><c>In</c><c>   1</c></rc>
    <rc><c>In</c><c>   1</c></rc>
    <rc><c>In</c><c>   1</c></rc>
    <rc><c>In</c><c>   1</c></rc>
    <rc><c>In</c><c>   1</c></rc>
    <rc><c>In</c><c>   1</c></rc>
    <rc><c>In</c><c>   1</c></rc>
    <rc><c>In</c><c>   1</c></rc>
    <rc><c>In</c><c>   1</c></rc>
    <rc><c>In</c><c>   1</c></rc>
    <rc><c>In</c><c>   1</c></rc>
    <rc><c>In</c><c>   1</c></rc>
    <rc><c>In</c><c>   1</c></rc>
    <rc><c>In</c><c>   1</c></rc>
    <rc><c>In</c><c>   1</c></rc>
    <rc><c>In</c><c>   1</c></rc>
    <rc><c>In</c><c>   1</c></rc>
    <rc><c>In</c><c>   1</c></rc>
    <rc><c>In</c><c>   1</c></rc>
    <rc><c>In</c><c>   1</c></rc>
    <rc><c>In</c><c>   1</c></rc>
    <rc><c>In</c><c>   1</c></rc>
    <rc><c>In</c><c>   1</c></rc>
    <rc><c>In</c><c>   1</c></rc>
    <rc><c>In</c><c>   1</c></rc>
    <rc><c>In</c><c>   1</c></rc>
    <rc><c>In</c><c>   1</c></rc>
    <rc><c>In</c><c>   1</c></rc>
    <rc><c>In</c><c>   1</c></rc>
    <rc><c>In</c><c>   1</c></rc>
    <rc><c>In</c><c>   1</c></rc>
    <rc><c>In</c><c>   1</c></rc>
    <rc><c>In</c><c>   1</c></rc>
    <rc><c>In</c><c>   1</c></rc>
    <rc><c>In</c><c>   1</c></rc>
    <rc><c>In</c><c>   1</c></rc>
    <rc><c>As</c><c>   2</c></rc>
    <rc><c>As</c><c>   2</c></rc>
    <rc><c>As</c><c>   2</c></rc>
    <rc><c>As</c><c>   2</c></rc>
    <rc><c>As</c><c>   2</c></rc>
    <rc><c>As</c><c>   2</c></rc>
    <rc><c>As</c><c>   2</c></rc>
    <rc><c>As</c><c>   2</c></rc>
    <rc><c>As</c><c>   2</c></rc>
    <rc><c>As</c><c>   2</c></rc>
    <rc><c>As</c><c>   2</c></rc>
    <rc><c>As</c><c>   2</c></rc>
    <rc><c>As</c><c>   2</c></rc>
    <rc><c>As</c><c>   2</c></rc>
    <rc><c>As</c><c>   2</c></rc>
    <rc><c>As</c><c>   2</c></rc>
    <rc><c>As</c><c>   2</c></rc>
    <rc><c>As</c><c>   2</c></rc>
    <rc><c>As</c><c>   2</c></rc>
    <rc><c>As</c><c>   2</c></rc>
    <rc><c>As</c><c>   2</c></rc>
    <rc><c>As</c><c>   2</c></rc>
    <rc><c>As</c><c>   2</c></rc>
    <rc><c>As</c><c>   2</c></rc>
    <rc><c>As</c><c>   2</c></rc>
    <rc><c>As</c><c>   2</c></rc>
    <rc><c>As</c><c>   2</c></rc>
    <rc><c>As</c><c>   2</c></rc>
    <rc><c>As</c><c>   2</c></rc>
    <rc><c>As</c><c>   2</c></rc>
    <rc><c>As</c><c>   2</c></rc>
    <rc><c>As</c><c>   2</c></rc>
    <rc><c>As</c><c>   2</c></rc>
    <rc><c>As</c><c>   2</c></rc>
    <rc><c>As</c><c>   2</c></rc>
    <rc><c>As</c><c>   2</c></rc>
    <rc><c>As</c><c>   2</c></rc>
    <rc><c>As</c><c>   2</c></rc>
    <rc><c>As</c><c>   2</c></rc>
    <rc><c>As</c><c>   2</c></rc>
    <rc><c>As</c><c>   2</c></rc>
    <rc><c>As</c><c>   2</c></rc>
    <rc><c>As</c><c>   2</c></rc>
    <rc><c>As</c><c>   2</c></rc>
    <rc><c>As</c><c>   2</c></rc>
    <rc><c>As</c><c>   2</c></rc>
    <rc><c>As</c><c>   2</c></rc>
    <rc><c>As</c><c>   2</c></rc>
    <rc><c>As</c><c>   2</c></rc>
    <rc><c>As</c><c>   2</c></rc>
    <rc><c>As</c><c>   2</c></rc>
    <rc><c>As</c><c>   2</c></rc>
    <rc><c>As</c><c>   2</c></rc>
    <rc><c>As</c><c>   2</c></rc>
    <rc><c>As</c><c>   2</c></rc>
    <rc><c>As</c><c>   2</c></rc>
    <rc><c>As</c><c>   2</c></rc>
    <rc><c>As</c><c>   2</c></rc>
    <rc><c>As</c><c>   2</c></rc>
    <rc><c>As</c><c>   2</c></rc>
    <rc><c>As</c><c>   2</c></rc>
    <rc><c>As</c><c>   2</c></rc>
    <rc><c>As</c><c>   2</c></rc>
    <rc><c>As</c><c>   2</c></rc>
    <rc><c>H </c><c>   3</c></rc>
    <rc><c>H </c><c>   3</c></rc>
    <rc><c>H </c><c>   3</c></rc>
    <rc><c>H </c><c>   3</c></rc>
    <rc><c>H </c><c>   3</c></rc>
    <rc><c>H </c><c>   3</c></rc>
    <rc><c>H </c><c>   3</c></rc>
    <rc><c>H </c><c>   3</c></rc>
    <rc><c>H </c><c>   3</c></rc>
    <rc><c>H </c><c>   3</c></rc>
    <rc><c>H </c><c>   3</c></rc>
    <rc><c>H </c><c>   3</c></rc>
    <rc><c>H </c><c>   3</c></rc>
    <rc><c>H </c><c>   3</c></rc>
    <rc><c>H </c><c>   3</c></rc>
    <rc><c>H </c><c>   3</c></rc>
   </set>
  </array>
  <array name="atomtypes" >
   <dimension dim="1">type</dimension>
   <field type="int">atomspertype</field>
   <field type="string">element</field>
   <field>mass</field>
   <field>valence</field>
   <field type="string">pseudopotential</field>
   <set>
    <rc><c>  92</c><c>In</c><c>    114.82000000</c><c>     13.00000000</c><c> PAW In_d 11Feb1998                     </c></rc>
    <rc><c>  64</c><c>As</c><c>     74.92200000</c><c>      5.00000000</c><c> PAW As 03Mar1998                       </c></rc>
    <rc><c>  16</c><c>H </c><c>      1.00000000</c><c>      1.25000000</c><c> PAW H1.25 14Feb2000                    </c></rc>
   </set>
  </array>
 </atominfo>
 <structure name="initialpos" >
  <crystal>
   <varray name="basis" >
    <v>      17.03433609       0.00000000       0.00000000 </v>
    <v>      -8.51716805      14.75216779       0.00000000 </v>
    <v>       0.00000000       0.00000000      31.29407310 </v>
   </varray>
   <i name="volume">   7863.99353597 </i>
   <varray name="rec_basis" >
    <v>       0.05870496       0.03389332       0.00000000 </v>
    <v>       0.00000000       0.06778665       0.00000000 </v>
    <v>       0.00000000       0.00000000       0.03195493 </v>
   </varray>
  </crystal>
  <varray name="positions" >
   <v>       0.04937474       0.40040636       0.99613444 </v>
   <v>       0.04889542       0.89944771       0.99568253 </v>
   <v>       0.54889542       0.39944771       0.99568253 </v>
   <v>       0.54889542       0.89944771       0.99568253 </v>
   <v>       0.35055229       0.39944771       0.99568253 </v>
   <v>       0.35055229       0.89944771       0.99568253 </v>
   <v>       0.85055229       0.39944771       0.99568253 </v>
   <v>       0.85055229       0.89944771       0.99568253 </v>
   <v>       0.35055229       0.20110457       0.99568253 </v>
   <v>       0.35055229       0.70110457       0.99568253 </v>
   <v>       0.85055229       0.20110457       0.99568253 </v>
   <v>       0.85055229       0.70110457       0.99568253 </v>
   <v>       0.02661586       0.05323172       0.99490245 </v>
   <v>       0.02661586       0.55323172       0.99490245 </v>
   <v>       0.52661586       0.05323172       0.99490245 </v>
   <v>       0.52661586       0.55323172       0.99490245 </v>
   <v>       0.19676828       0.22338414       0.99490245 </v>
   <v>       0.19676828       0.72338414       0.99490245 </v>
   <v>       0.69676828       0.22338414       0.99490245 </v>
   <v>       0.69676828       0.72338414       0.99490245 </v>
   <v>       0.25000000       0.00000000       0.99493075 </v>
   <v>       0.25000000       0.50000000       0.99493075 </v>
   <v>       0.75000000       0.00000000       0.99493075 </v>
   <v>       0.75000000       0.50000000       0.99493075 </v>
   <v>       0.02661586       0.22338414       0.99490245 </v>
   <v>       0.02661586       0.72338414       0.99490245 </v>
   <v>       0.52661586       0.22338414       0.99490245 </v>
   <v>       0.52661586       0.72338414       0.99490245 </v>
   <v>       0.16687125       0.33374251       0.11114905 </v>
   <v>       0.16687125       0.83374251       0.11114905 </v>
   <v>       0.66687125       0.33374251       0.11114905 </v>
   <v>       0.66687125       0.83374251       0.11114905 </v>
   <v>       0.41625749       0.08312875       0.11114905 </v>
   <v>       0.41625749       0.58312875       0.11114905 </v>
   <v>       0.91625749       0.08312875       0.11114905 </v>
   <v>       0.91625749       0.58312875       0.11114905 </v>
   <v>       0.41666666       0.33333334       0.10951073 </v>
   <v>       0.41666666       0.83333334       0.10951073 </v>
   <v>       0.91666666       0.33333334       0.10951073 </v>
   <v>       0.91666666       0.83333334       0.10951073 </v>
   <v>       0.16687125       0.08312875       0.11114905 </v>
   <v>       0.16687125       0.58312875       0.11114905 </v>
   <v>       0.66687125       0.08312875       0.11114905 </v>
   <v>       0.66687125       0.58312875       0.11114905 </v>
   <v>       0.33333334       0.16666667       0.22222222 </v>
   <v>       0.33333334       0.66666667       0.22222222 </v>
   <v>       0.83333334       0.16666667       0.22222222 </v>
   <v>       0.83333334       0.66666667       0.22222222 </v>
   <v>       0.08333331       0.41666666       0.22222222 </v>
   <v>       0.08333331       0.91666666       0.22222222 </v>
   <v>       0.58333331       0.41666666       0.22222222 </v>
   <v>       0.58333331       0.91666666       0.22222222 </v>
   <v>       0.08333331       0.16666669       0.22222222 </v>
   <v>       0.08333331       0.66666669       0.22222222 </v>
   <v>       0.58333331       0.16666669       0.22222222 </v>
   <v>       0.58333331       0.66666669       0.22222222 </v>
   <v>       0.33333334       0.41666666       0.22222222 </v>
   <v>       0.33333334       0.91666666       0.22222222 </v>
   <v>       0.83333334       0.41666666       0.22222222 </v>
   <v>       0.83333334       0.91666666       0.22222222 </v>
   <v>       0.00000000       0.00000000       0.33333334 </v>
   <v>       0.00000000       0.50000000       0.33333334 </v>
   <v>       0.50000000       0.00000000       0.33333334 </v>
   <v>       0.50000000       0.50000000       0.33333334 </v>
   <v>       0.25000000       0.25000000       0.33333334 </v>
   <v>       0.25000000       0.75000000       0.33333334 </v>
   <v>       0.75000000       0.25000000       0.33333334 </v>
   <v>       0.75000000       0.75000000       0.33333334 </v>
   <v>       0.25000000       0.00000000       0.33333334 </v>
   <v>       0.25000000       0.50000000       0.33333334 </v>
   <v>       0.75000000       0.00000000       0.33333334 </v>
   <v>       0.75000000       0.50000000       0.33333334 </v>
   <v>       0.00000000       0.25000000       0.33333334 </v>
   <v>       0.00000000       0.75000000       0.33333334 </v>
   <v>       0.50000000       0.25000000       0.33333334 </v>
   <v>       0.50000000       0.75000000       0.33333334 </v>
   <v>       0.16666667       0.33333334       0.44444445 </v>
   <v>       0.16666667       0.83333334       0.44444445 </v>
   <v>       0.66666667       0.33333334       0.44444445 </v>
   <v>       0.66666667       0.83333334       0.44444445 </v>
   <v>       0.41666666       0.08333334       0.44444445 </v>
   <v>       0.41666666       0.58333334       0.44444445 </v>
   <v>       0.91666666       0.08333334       0.44444445 </v>
   <v>       0.91666666       0.58333334       0.44444445 </v>
   <v>       0.41666666       0.33333334       0.44444445 </v>
   <v>       0.41666666       0.83333334       0.44444445 </v>
   <v>       0.91666666       0.33333334       0.44444445 </v>
   <v>       0.91666666       0.83333334       0.44444445 </v>
   <v>       0.16666667       0.08333334       0.44444445 </v>
   <v>       0.16666667       0.58333334       0.44444445 </v>
   <v>       0.66666667       0.08333334       0.44444445 </v>
   <v>       0.66666667       0.58333334       0.44444445 </v>
   <v>       0.00060404       0.00120809       0.07927097 </v>
   <v>       0.00060404       0.50120809       0.07927097 </v>
   <v>       0.50060404       0.00120809       0.07927097 </v>
   <v>       0.50060404       0.50120809       0.07927097 </v>
   <v>       0.00060404       0.24939596       0.07927100 </v>
   <v>       0.00060404       0.74939596       0.07927100 </v>
   <v>       0.50060404       0.24939596       0.07927100 </v>
   <v>       0.50060404       0.74939596       0.07927100 </v>
   <v>       0.25000000       0.00000000       0.08094485 </v>
   <v>       0.25000000       0.50000000       0.08094485 </v>
   <v>       0.75000000       0.00000000       0.08094485 </v>
   <v>       0.75000000       0.50000000       0.08094485 </v>
   <v>       0.24879191       0.24939596       0.07927100 </v>
   <v>       0.24879191       0.74939596       0.07927100 </v>
   <v>       0.74879191       0.24939596       0.07927100 </v>
   <v>       0.74879191       0.74939596       0.07927100 </v>
   <v>       0.16660331       0.33320661       0.19452973 </v>
   <v>       0.16660331       0.83320661       0.19452973 </v>
   <v>       0.66660331       0.33320661       0.19452973 </v>
   <v>       0.66660331       0.83320661       0.19452973 </v>
   <v>       0.16660331       0.08339670       0.19452973 </v>
   <v>       0.16660331       0.58339670       0.19452973 </v>
   <v>       0.66660331       0.08339670       0.19452973 </v>
   <v>       0.66660331       0.58339670       0.19452973 </v>
   <v>       0.41666666       0.33333334       0.19342860 </v>
   <v>       0.41666666       0.83333334       0.19342860 </v>
   <v>       0.91666666       0.33333334       0.19342860 </v>
   <v>       0.91666666       0.83333334       0.19342860 </v>
   <v>       0.41679339       0.08339670       0.19452973 </v>
   <v>       0.41679339       0.58339670       0.19452973 </v>
   <v>       0.91679339       0.08339670       0.19452973 </v>
   <v>       0.91679339       0.58339670       0.19452973 </v>
   <v>       0.33333334       0.16666667       0.30555555 </v>
   <v>       0.33333334       0.66666667       0.30555555 </v>
   <v>       0.83333334       0.16666667       0.30555555 </v>
   <v>       0.83333334       0.66666667       0.30555555 </v>
   <v>       0.33333334       0.41666666       0.30555555 </v>
   <v>       0.33333334       0.91666666       0.30555555 </v>
   <v>       0.83333334       0.41666666       0.30555555 </v>
   <v>       0.83333334       0.91666666       0.30555555 </v>
   <v>       0.08333331       0.16666669       0.30555555 </v>
   <v>       0.08333331       0.66666669       0.30555555 </v>
   <v>       0.58333331       0.16666669       0.30555555 </v>
   <v>       0.58333331       0.66666669       0.30555555 </v>
   <v>       0.08333331       0.41666666       0.30555555 </v>
   <v>       0.08333331       0.91666666       0.30555555 </v>
   <v>       0.58333331       0.41666666       0.30555555 </v>
   <v>       0.58333331       0.91666666       0.30555555 </v>
   <v>       0.00000000       0.00000000       0.41666666 </v>
   <v>       0.00000000       0.50000000       0.41666666 </v>
   <v>       0.50000000       0.00000000       0.41666666 </v>
   <v>       0.50000000       0.50000000       0.41666666 </v>
   <v>       0.00000000       0.25000000       0.41666666 </v>
   <v>       0.00000000       0.75000000       0.41666666 </v>
   <v>       0.50000000       0.25000000       0.41666666 </v>
   <v>       0.50000000       0.75000000       0.41666666 </v>
   <v>       0.25000000       0.00000000       0.41666666 </v>
   <v>       0.25000000       0.50000000       0.41666666 </v>
   <v>       0.75000000       0.00000000       0.41666666 </v>
   <v>       0.75000000       0.50000000       0.41666666 </v>
   <v>       0.25000000       0.25000000       0.41666666 </v>
   <v>       0.25000000       0.75000000       0.41666666 </v>
   <v>       0.75000000       0.25000000       0.41666666 </v>
   <v>       0.75000000       0.75000000       0.41666666 </v>
   <v>       0.16666667       0.33333334       0.50007080 </v>
   <v>       0.16666667       0.83333334       0.50007080 </v>
   <v>       0.66666667       0.33333334       0.50007080 </v>
   <v>       0.66666667       0.83333334       0.50007080 </v>
   <v>       0.16666667       0.08333334       0.50007080 </v>
   <v>       0.16666667       0.58333334       0.50007080 </v>
   <v>       0.66666667       0.08333334       0.50007080 </v>
   <v>       0.66666667       0.58333334       0.50007080 </v>
   <v>       0.41666666       0.33333334       0.50007080 </v>
   <v>       0.41666666       0.83333334       0.50007080 </v>
   <v>       0.91666666       0.33333334       0.50007080 </v>
   <v>       0.91666666       0.83333334       0.50007080 </v>
   <v>       0.41666666       0.08333334       0.50007080 </v>
   <v>       0.41666666       0.58333334       0.50007080 </v>
   <v>       0.91666666       0.08333334       0.50007080 </v>
   <v>       0.91666666       0.58333334       0.50007080 </v>
  </varray>
 </structure>
 <calculation>
  <scstep>
   <time name="dav">  472.92  473.85</time>
   <time name="total">  473.63  474.58</time>
   <dipole>
    <v name="dipole">      0.00000000       0.00000000      -0.00133693 </v>
    <i name="Tr[quadrupol]"> -74897.33000011 </i>
    <i name="Echarged">      0.00000000 </i>
    <i name="Edipol_quadrupol">      0.00000000 </i>
    <i name="Eion">      0.00000000 </i>
   </dipole>
   <energy>
    <i name="alphaZ">   1768.57130505 </i>
    <i name="ewald"> 318743.44923904 </i>
    <i name="hartreedc">-467320.39674541 </i>
    <i name="XCdc">   3216.69194643 </i>
    <i name="pawpsdc"> 116446.47017590 </i>
    <i name="pawaedc">-114544.52040592 </i>
    <i name="eentropy">     -0.04379459 </i>
    <i name="bandstr">    625.77742908 </i>
    <i name="atom"> 156698.92270065 </i>
    <i name="e_fr_energy">  15634.92185023 </i>
    <i name="e_wo_entrp">  15634.96564482 </i>
    <i name="e_0_energy">  15634.94374753 </i>
   </energy>
  </scstep>
  <scstep>
   <time name="dav">  502.90  503.81</time>
   <time name="total">  502.92  503.82</time>
   <dipole>
    <v name="dipole">      0.00000000       0.00000000      -0.00133693 </v>
    <i name="Tr[quadrupol]"> -74897.33000011 </i>
    <i name="Echarged">      0.00000000 </i>
    <i name="Edipol_quadrupol">      0.00000000 </i>
    <i name="Eion">      0.00000000 </i>
   </dipole>
   <energy>
    <i name="e_fr_energy">   1765.61108042 </i>
    <i name="e_wo_entrp">   1765.65339967 </i>
    <i name="e_0_energy">   1765.63224004 </i>
   </energy>
  </scstep>
  <scstep>
   <time name="dav">  518.05  560.02</time>
   <time name="total">  518.07  560.03</time>
   <dipole>
    <v name="dipole">      0.00000000       0.00000000      -0.00133693 </v>
    <i name="Tr[quadrupol]"> -74897.33000011 </i>
    <i name="Echarged">      0.00000000 </i>
    <i name="Edipol_quadrupol">      0.00000000 </i>
    <i name="Eion">      0.00000000 </i>
   </dipole>
   <energy>
    <i name="e_fr_energy">   -526.42803911 </i>
    <i name="e_wo_entrp">   -526.41890919 </i>
    <i name="e_0_energy">   -526.42347415 </i>
   </energy>
  </scstep>
  <scstep>
   <time name="dav">  607.72  609.67</time>
   <time name="total">  607.74  609.69</time>
   <dipole>
    <v name="dipole">      0.00000000       0.00000000      -0.00133693 </v>
    <i name="Tr[quadrupol]"> -74897.33000011 </i>
    <i name="Echarged">      0.00000000 </i>
    <i name="Edipol_quadrupol">      0.00000000 </i>
    <i name="Eion">      0.00000000 </i>
   </dipole>
   <energy>
    <i name="e_fr_energy">   -721.57878049 </i>
    <i name="e_wo_entrp">   -721.56134914 </i>
    <i name="e_0_energy">   -721.57006482 </i>
   </energy>
  </scstep>
  <scstep>
   <time name="dav">  547.02  548.19</time>
   <time name="total">  553.13  554.31</time>
   <dipole>
    <v name="dipole">      0.00000000       0.00000000      -0.00133693 </v>
    <i name="Tr[quadrupol]"> -74897.33000011 </i>
    <i name="Echarged">      0.00000000 </i>
    <i name="Edipol_quadrupol">      0.00000000 </i>
    <i name="Eion">      0.00000000 </i>
   </dipole>
   <energy>
    <i name="e_fr_energy">   -730.85528581 </i>
    <i name="e_wo_entrp">   -730.83753956 </i>
    <i name="e_0_energy">   -730.84641269 </i>
   </energy>
  </scstep>
  <scstep>
   <time name="dav">  574.92  576.03</time>
   <time name="total">  582.64  583.77</time>
   <dipole>
    <v name="dipole">      0.00000000       0.00000000       1.73392608 </v>
    <i name="Tr[quadrupol]"> -74913.54634734 </i>
    <i name="Echarged">      0.00000000 </i>
    <i name="Edipol_quadrupol">      0.00000000 </i>
    <i name="Eion">      0.00000000 </i>
   </dipole>
   <energy>
    <i name="e_fr_energy">   -706.93895388 </i>
    <i name="e_wo_entrp">   -706.92945095 </i>
    <i name="e_0_energy">   -706.93420241 </i>
   </energy>
  </scstep>
  <scstep>
   <time name="dav">  618.41  619.66</time>
   <time name="total">  626.94  628.24</time>
   <dipole>
    <v name="dipole">      0.00000000       0.00000000       0.18929810 </v>
    <i name="Tr[quadrupol]"> -74916.91963574 </i>
    <i name="Echarged">      0.00000000 </i>
    <i name="Edipol_quadrupol">      0.00000000 </i>
    <i name="Eion">      0.00000000 </i>
   </dipole>
   <energy>
    <i name="e_fr_energy">   -703.74999969 </i>
    <i name="e_wo_entrp">   -703.73833510 </i>
    <i name="e_0_energy">   -703.74416739 </i>
   </energy>
  </scstep>
  <scstep>
   <time name="dav">  572.11  573.55</time>
   <time name="total">  578.69  580.14</time>
   <dipole>
    <v name="dipole">      0.00000000       0.00000000       1.34793508 </v>
    <i name="Tr[quadrupol]"> -74922.00373889 </i>
    <i name="Echarged">      0.00000000 </i>
    <i name="Edipol_quadrupol">      0.00000000 </i>
    <i name="Eion">      0.00000000 </i>
   </dipole>
   <energy>
    <i name="e_fr_energy">   -703.81986410 </i>
    <i name="e_wo_entrp">   -703.81176783 </i>
    <i name="e_0_energy">   -703.81581596 </i>
   </energy>
  </scstep>
  <scstep>
   <time name="dav">  576.85  578.15</time>
   <time name="total">  583.40  584.71</time>
   <dipole>
    <v name="dipole">      0.00000000       0.00000000       1.12342775 </v>
    <i name="Tr[quadrupol]"> -74927.62328520 </i>
    <i name="Echarged">      0.00000000 </i>
    <i name="Edipol_quadrupol">      0.00000000 </i>
    <i name="Eion">      0.00000000 </i>
   </dipole>
   <energy>
    <i name="e_fr_energy">   -703.67123992 </i>
    <i name="e_wo_entrp">   -703.66383275 </i>
    <i name="e_0_energy">   -703.66753633 </i>
   </energy>
  </scstep>
  <scstep>
   <time name="dav">  606.33  607.47</time>
   <time name="total">  613.64  614.80</time>
   <dipole>
    <v name="dipole">      0.00000000       0.00000000       1.13937533 </v>
    <i name="Tr[quadrupol]"> -74931.77253097 </i>
    <i name="Echarged">      0.00000000 </i>
    <i name="Edipol_quadrupol">      0.00000000 </i>
    <i name="Eion">      0.00000000 </i>
   </dipole>
   <energy>
    <i name="e_fr_energy">   -703.67403778 </i>
    <i name="e_wo_entrp">   -703.66669579 </i>
    <i name="e_0_energy">   -703.67036679 </i>
   </energy>
  </scstep>
  <scstep>
   <time name="dav">  584.10  585.26</time>
   <time name="total">  590.81  591.98</time>
   <dipole>
    <v name="dipole">      0.00000000       0.00000000       1.21042934 </v>
    <i name="Tr[quadrupol]"> -74933.18867099 </i>
    <i name="Echarged">      0.00000000 </i>
    <i name="Edipol_quadrupol">      0.00000000 </i>
    <i name="Eion">      0.00000000 </i>
   </dipole>
   <energy>
    <i name="e_fr_energy">   -703.68178515 </i>
    <i name="e_wo_entrp">   -703.67442303 </i>
    <i name="e_0_energy">   -703.67810409 </i>
   </energy>
  </scstep>
  <scstep>
   <time name="dav">  605.34  606.71</time>
   <time name="total">  612.06  613.44</time>
   <dipole>
    <v name="dipole">      0.00000000       0.00000000       1.23655255 </v>
    <i name="Tr[quadrupol]"> -74935.33283498 </i>
    <i name="Echarged">      0.00000000 </i>
    <i name="Edipol_quadrupol">      0.00000000 </i>
    <i name="Eion">      0.00000000 </i>
   </dipole>
   <energy>
    <i name="e_fr_energy">   -703.68621385 </i>
    <i name="e_wo_entrp">   -703.67880616 </i>
    <i name="e_0_energy">   -703.68251000 </i>
   </energy>
  </scstep>
  <scstep>
   <time name="dav">  602.09  603.35</time>
   <time name="total">  608.64  609.91</time>
   <dipole>
    <v name="dipole">      0.00000000       0.00000000       1.24181730 </v>
    <i name="Tr[quadrupol]"> -74937.81810305 </i>
    <i name="Echarged">      0.00000000 </i>
    <i name="Edipol_quadrupol">      0.00000000 </i>
    <i name="Eion">      0.00000000 </i>
   </dipole>
   <energy>
    <i name="e_fr_energy">   -703.69126480 </i>
    <i name="e_wo_entrp">   -703.68382991 </i>
    <i name="e_0_energy">   -703.68754736 </i>
   </energy>
  </scstep>
  <scstep>
   <time name="dav">  561.30  562.44</time>
   <time name="total">  567.87  569.01</time>
   <dipole>
    <v name="dipole">      0.00000000       0.00000000       1.26329966 </v>
    <i name="Tr[quadrupol]"> -74939.48559711 </i>
    <i name="Echarged">      0.00000000 </i>
    <i name="Edipol_quadrupol">      0.00000000 </i>
    <i name="Eion">      0.00000000 </i>
   </dipole>
   <energy>
    <i name="e_fr_energy">   -703.69629602 </i>
    <i name="e_wo_entrp">   -703.68886797 </i>
    <i name="e_0_energy">   -703.69258200 </i>
   </energy>
  </scstep>
  <scstep>
   <time name="dav">  561.14  563.25</time>
   <time name="total">  567.73  569.85</time>
   <dipole>
    <v name="dipole">      0.00000000       0.00000000       1.28635680 </v>
    <i name="Tr[quadrupol]"> -74941.49652882 </i>
    <i name="Echarged">      0.00000000 </i>
    <i name="Edipol_quadrupol">      0.00000000 </i>
    <i name="Eion">      0.00000000 </i>
   </dipole>
   <energy>
    <i name="e_fr_energy">   -703.70227828 </i>
    <i name="e_wo_entrp">   -703.69484359 </i>
    <i name="e_0_energy">   -703.69856093 </i>
   </energy>
  </scstep>
  <scstep>
   <time name="dav">  558.09  559.35</time>
   <time name="total">  565.94  567.21</time>
   <dipole>
    <v name="dipole">      0.00000000       0.00000000       1.30065527 </v>
    <i name="Tr[quadrupol]"> -74942.28518547 </i>
    <i name="Echarged">      0.00000000 </i>
    <i name="Edipol_quadrupol">      0.00000000 </i>
    <i name="Eion">      0.00000000 </i>
   </dipole>
   <energy>
    <i name="e_fr_energy">   -703.70436586 </i>
    <i name="e_wo_entrp">   -703.69693079 </i>
    <i name="e_0_energy">   -703.70064832 </i>
   </energy>
  </scstep>
  <scstep>
   <time name="dav">  532.83  533.88</time>
   <time name="total">  539.43  540.49</time>
   <dipole>
    <v name="dipole">      0.00000000       0.00000000       1.31716946 </v>
    <i name="Tr[quadrupol]"> -74943.24592359 </i>
    <i name="Echarged">      0.00000000 </i>
    <i name="Edipol_quadrupol">      0.00000000 </i>
    <i name="Eion">      0.00000000 </i>
   </dipole>
   <energy>
    <i name="e_fr_energy">   -703.70543070 </i>
    <i name="e_wo_entrp">   -703.69799638 </i>
    <i name="e_0_energy">   -703.70171354 </i>
   </energy>
  </scstep>
  <scstep>
   <time name="dav">  569.85  570.99</time>
   <time name="total">  578.28  579.43</time>
   <dipole>
    <v name="dipole">      0.00000000       0.00000000       1.33110205 </v>
    <i name="Tr[quadrupol]"> -74943.46222929 </i>
    <i name="Echarged">      0.00000000 </i>
    <i name="Edipol_quadrupol">      0.00000000 </i>
    <i name="Eion">      0.00000000 </i>
   </dipole>
   <energy>
    <i name="e_fr_energy">   -703.70594991 </i>
    <i name="e_wo_entrp">   -703.69851507 </i>
    <i name="e_0_energy">   -703.70223249 </i>
   </energy>
  </scstep>
  <scstep>
   <time name="dav">  603.80  605.00</time>
   <time name="total">  611.54  612.75</time>
   <dipole>
    <v name="dipole">      0.00000000       0.00000000       1.34428046 </v>
    <i name="Tr[quadrupol]"> -74943.66939740 </i>
    <i name="Echarged">      0.00000000 </i>
    <i name="Edipol_quadrupol">      0.00000000 </i>
    <i name="Eion">      0.00000000 </i>
   </dipole>
   <energy>
    <i name="e_fr_energy">   -703.70646349 </i>
    <i name="e_wo_entrp">   -703.69902826 </i>
    <i name="e_0_energy">   -703.70274587 </i>
   </energy>
  </scstep>
  <scstep>
   <time name="dav">  548.26  549.34</time>
   <time name="total">  556.08  557.17</time>
   <dipole>
    <v name="dipole">      0.00000000       0.00000000       1.36274098 </v>
    <i name="Tr[quadrupol]"> -74943.72669126 </i>
    <i name="Echarged">      0.00000000 </i>
    <i name="Edipol_quadrupol">      0.00000000 </i>
    <i name="Eion">      0.00000000 </i>
   </dipole>
   <energy>
    <i name="e_fr_energy">   -703.70692259 </i>
    <i name="e_wo_entrp">   -703.69948563 </i>
    <i name="e_0_energy">   -703.70320411 </i>
   </energy>
  </scstep>
  <scstep>
   <time name="dav">  540.46  541.44</time>
   <time name="total">  547.01  548.00</time>
   <dipole>
    <v name="dipole">      0.00000000       0.00000000       1.37177439 </v>
    <i name="Tr[quadrupol]"> -74943.81431579 </i>
    <i name="Echarged">      0.00000000 </i>
    <i name="Edipol_quadrupol">      0.00000000 </i>
    <i name="Eion">      0.00000000 </i>
   </dipole>
   <energy>
    <i name="e_fr_energy">   -703.70707208 </i>
    <i name="e_wo_entrp">   -703.69963357 </i>
    <i name="e_0_energy">   -703.70335283 </i>
   </energy>
  </scstep>
  <scstep>
   <time name="dav">  547.85  548.92</time>
   <time name="total">  554.44  555.51</time>
   <dipole>
    <v name="dipole">      0.00000000       0.00000000       1.38226127 </v>
    <i name="Tr[quadrupol]"> -74943.93804018 </i>
    <i name="Echarged">      0.00000000 </i>
    <i name="Edipol_quadrupol">      0.00000000 </i>
    <i name="Eion">      0.00000000 </i>
   </dipole>
   <energy>
    <i name="e_fr_energy">   -703.70726857 </i>
    <i name="e_wo_entrp">   -703.69982861 </i>
    <i name="e_0_energy">   -703.70354859 </i>
   </energy>
  </scstep>
  <scstep>
   <time name="dav">  587.00  588.91</time>
   <time name="total">  593.55  595.47</time>
   <dipole>
    <v name="dipole">      0.00000000       0.00000000       1.38575750 </v>
    <i name="Tr[quadrupol]"> -74943.79742047 </i>
    <i name="Echarged">      0.00000000 </i>
    <i name="Edipol_quadrupol">      0.00000000 </i>
    <i name="Eion">      0.00000000 </i>
   </dipole>
   <energy>
    <i name="e_fr_energy">   -703.70735955 </i>
    <i name="e_wo_entrp">   -703.69991993 </i>
    <i name="e_0_energy">   -703.70363974 </i>
   </energy>
  </scstep>
  <scstep>
   <time name="dav">  609.89  611.20</time>
   <time name="total">  616.43  617.76</time>
   <dipole>
    <v name="dipole">      0.00000000       0.00000000       1.39234250 </v>
    <i name="Tr[quadrupol]"> -74946.17839999 </i>
    <i name="Echarged">      0.00000000 </i>
    <i name="Edipol_quadrupol">      0.00000000 </i>
    <i name="Eion">      0.00000000 </i>
   </dipole>
   <energy>
    <i name="e_fr_energy">   -703.70739898 </i>
    <i name="e_wo_entrp">   -703.69995972 </i>
    <i name="e_0_energy">   -703.70367935 </i>
   </energy>
  </scstep>
  <scstep>
   <time name="dav">  484.38  485.24</time>
   <time name="total">  490.92  491.80</time>
   <dipole>
    <v name="dipole">      0.00000000       0.00000000       1.39139996 </v>
    <i name="Tr[quadrupol]"> -74947.09634041 </i>
    <i name="Echarged">      0.00000000 </i>
    <i name="Edipol_quadrupol">      0.00000000 </i>
    <i name="Eion">      0.00000000 </i>
   </dipole>
   <energy>
    <i name="e_fr_energy">   -703.70740876 </i>
    <i name="e_wo_entrp">   -703.69996959 </i>
    <i name="e_0_energy">   -703.70368918 </i>
   </energy>
  </scstep>
  <scstep>
   <time name="dav">  487.45  488.16</time>
   <time name="total">  495.05  495.77</time>
   <dipole>
    <v name="dipole">      0.00000000       0.00000000       1.38812869 </v>
    <i name="Tr[quadrupol]"> -74947.10375874 </i>
    <i name="Echarged">      0.00000000 </i>
    <i name="Edipol_quadrupol">      0.00000000 </i>
    <i name="Eion">      0.00000000 </i>
   </dipole>
   <energy>
    <i name="e_fr_energy">   -703.70741876 </i>
    <i name="e_wo_entrp">   -703.69997913 </i>
    <i name="e_0_energy">   -703.70369895 </i>
   </energy>
  </scstep>
  <scstep>
   <time name="dav">  538.56  539.44</time>
   <time name="total">  545.14  546.03</time>
   <dipole>
    <v name="dipole">      0.00000000       0.00000000       1.38810981 </v>
    <i name="Tr[quadrupol]"> -74947.10274450 </i>
    <i name="Echarged">      0.00000000 </i>
    <i name="Edipol_quadrupol">      0.00000000 </i>
    <i name="Eion">      0.00000000 </i>
   </dipole>
   <energy>
    <i name="e_fr_energy">   -703.70742024 </i>
    <i name="e_wo_entrp">   -703.69998024 </i>
    <i name="e_0_energy">   -703.70370024 </i>
   </energy>
  </scstep>
  <scstep>
   <time name="dav">  611.67  612.79</time>
   <time name="total">  618.25  619.38</time>
   <dipole>
    <v name="dipole">      0.00000000       0.00000000       1.38804501 </v>
    <i name="Tr[quadrupol]"> -74947.10310280 </i>
    <i name="Echarged">      0.00000000 </i>
    <i name="Edipol_quadrupol">      0.00000000 </i>
    <i name="Eion">      0.00000000 </i>
   </dipole>
   <energy>
    <i name="e_fr_energy">   -703.70742085 </i>
    <i name="e_wo_entrp">   -703.69998077 </i>
    <i name="e_0_energy">   -703.70370081 </i>
   </energy>
  </scstep>
  <scstep>
   <time name="dav">  436.58  437.23</time>
   <time name="total">  443.12  443.79</time>
   <dipole>
    <v name="dipole">      0.00000000       0.00000000       1.38837472 </v>
    <i name="Tr[quadrupol]"> -74947.28345426 </i>
    <i name="Echarged">      0.00000000 </i>
    <i name="Edipol_quadrupol">      0.00000000 </i>
    <i name="Eion">      0.00000000 </i>
   </dipole>
   <energy>
    <i name="e_fr_energy">   -703.70742052 </i>
    <i name="e_wo_entrp">   -703.69998050 </i>
    <i name="e_0_energy">   -703.70370051 </i>
   </energy>
  </scstep>
  <scstep>
   <time name="dav">  447.90  448.61</time>
   <time name="total">  454.51  455.23</time>
   <dipole>
    <v name="dipole">      0.00000000       0.00000000       1.38845621 </v>
    <i name="Tr[quadrupol]"> -74947.46554423 </i>
    <i name="Echarged">      0.00000000 </i>
    <i name="Edipol_quadrupol">      0.00000000 </i>
    <i name="Eion">      0.00000000 </i>
   </dipole>
   <energy>
    <i name="e_fr_energy">   -703.70742126 </i>
    <i name="e_wo_entrp">   -703.69998129 </i>
    <i name="e_0_energy">   -703.70370127 </i>
   </energy>
  </scstep>
  <scstep>
   <time name="dav">  575.45  576.32</time>
   <time name="total">  583.15  584.04</time>
   <dipole>
    <v name="dipole">      0.00000000       0.00000000       1.38799895 </v>
    <i name="Tr[quadrupol]"> -74947.46694102 </i>
    <i name="Echarged">      0.00000000 </i>
    <i name="Edipol_quadrupol">      0.00000000 </i>
    <i name="Eion">      0.00000000 </i>
   </dipole>
   <energy>
    <i name="e_fr_energy">   -703.70742206 </i>
    <i name="e_wo_entrp">   -703.69998201 </i>
    <i name="e_0_energy">   -703.70370204 </i>
   </energy>
  </scstep>
  <scstep>
   <time name="dav">  471.61  472.37</time>
   <time name="total">  472.27  473.03</time>
   <dipole>
    <v name="dipole">      0.00000000       0.00000000       1.38799940 </v>
    <i name="Tr[quadrupol]"> -74947.46695116 </i>
    <i name="Echarged">      0.00000000 </i>
    <i name="Edipol_quadrupol">      0.00000000 </i>
    <i name="Eion">      0.00000000 </i>
   </dipole>
   <energy>
    <i name="alphaZ">   1795.13805802 </i>
    <i name="ewald"> 318743.44923904 </i>
    <i name="hartreedc">-467580.12320595 </i>
    <i name="XCdc">   3224.69934800 </i>
    <i name="pawpsdc"> 119805.30653469 </i>
    <i name="pawaedc">-118011.52489254 </i>
    <i name="eentropy">     -0.00744005 </i>
    <i name="bandstr"> -15379.56776392 </i>
    <i name="atom"> 156698.92270065 </i>
    <i name="e_fr_energy">   -703.70742207 </i>
    <i name="e_wo_entrp">   -703.69998201 </i>
    <i name="e_0_energy">   -703.70370204 </i>
   </energy>
  </scstep>
  <structure>
   <crystal>
    <varray name="basis" >
     <v>      17.03433609       0.00000000       0.00000000 </v>
     <v>      -8.51716805      14.75216779       0.00000000 </v>
     <v>       0.00000000       0.00000000      31.29407310 </v>
    </varray>
    <i name="volume">   7863.99353597 </i>
    <varray name="rec_basis" >
     <v>       0.05870496       0.03389332       0.00000000 </v>
     <v>       0.00000000       0.06778665       0.00000000 </v>
     <v>       0.00000000       0.00000000       0.03195493 </v>
    </varray>
   </crystal>
   <varray name="positions" >
    <v>       0.04937474       0.40040636       0.99613444 </v>
    <v>       0.04889542       0.89944771       0.99568253 </v>
    <v>       0.54889542       0.39944771       0.99568253 </v>
    <v>       0.54889542       0.89944771       0.99568253 </v>
    <v>       0.35055229       0.39944771       0.99568253 </v>
    <v>       0.35055229       0.89944771       0.99568253 </v>
    <v>       0.85055229       0.39944771       0.99568253 </v>
    <v>       0.85055229       0.89944771       0.99568253 </v>
    <v>       0.35055229       0.20110457       0.99568253 </v>
    <v>       0.35055229       0.70110457       0.99568253 </v>
    <v>       0.85055229       0.20110457       0.99568253 </v>
    <v>       0.85055229       0.70110457       0.99568253 </v>
    <v>       0.02661586       0.05323172       0.99490245 </v>
    <v>       0.02661586       0.55323172       0.99490245 </v>
    <v>       0.52661586       0.05323172       0.99490245 </v>
    <v>       0.52661586       0.55323172       0.99490245 </v>
    <v>       0.19676828       0.22338414       0.99490245 </v>
    <v>       0.19676828       0.72338414       0.99490245 </v>
    <v>       0.69676828       0.22338414       0.99490245 </v>
    <v>       0.69676828       0.72338414       0.99490245 </v>
    <v>       0.25000000       0.00000000       0.99493075 </v>
    <v>       0.25000000       0.50000000       0.99493075 </v>
    <v>       0.75000000       0.00000000       0.99493075 </v>
    <v>       0.75000000       0.50000000       0.99493075 </v>
    <v>       0.02661586       0.22338414       0.99490245 </v>
    <v>       0.02661586       0.72338414       0.99490245 </v>
    <v>       0.52661586       0.22338414       0.99490245 </v>
    <v>       0.52661586       0.72338414       0.99490245 </v>
    <v>       0.16687125       0.33374251       0.11114905 </v>
    <v>       0.16687125       0.83374251       0.11114905 </v>
    <v>       0.66687125       0.33374251       0.11114905 </v>
    <v>       0.66687125       0.83374251       0.11114905 </v>
    <v>       0.41625749       0.08312875       0.11114905 </v>
    <v>       0.41625749       0.58312875       0.11114905 </v>
    <v>       0.91625749       0.08312875       0.11114905 </v>
    <v>       0.91625749       0.58312875       0.11114905 </v>
    <v>       0.41666666       0.33333334       0.10951073 </v>
    <v>       0.41666666       0.83333334       0.10951073 </v>
    <v>       0.91666666       0.33333334       0.10951073 </v>
    <v>       0.91666666       0.83333334       0.10951073 </v>
    <v>       0.16687125       0.08312875       0.11114905 </v>
    <v>       0.16687125       0.58312875       0.11114905 </v>
    <v>       0.66687125       0.08312875       0.11114905 </v>
    <v>       0.66687125       0.58312875       0.11114905 </v>
    <v>       0.33333334       0.16666667       0.22222222 </v>
    <v>       0.33333334       0.66666667       0.22222222 </v>
    <v>       0.83333334       0.16666667       0.22222222 </v>
    <v>       0.83333334       0.66666667       0.22222222 </v>
    <v>       0.08333331       0.41666666       0.22222222 </v>
    <v>       0.08333331       0.91666666       0.22222222 </v>
    <v>       0.58333331       0.41666666       0.22222222 </v>
    <v>       0.58333331       0.91666666       0.22222222 </v>
    <v>       0.08333331       0.16666669       0.22222222 </v>
    <v>       0.08333331       0.66666669       0.22222222 </v>
    <v>       0.58333331       0.16666669       0.22222222 </v>
    <v>       0.58333331       0.66666669       0.22222222 </v>
    <v>       0.33333334       0.41666666       0.22222222 </v>
    <v>       0.33333334       0.91666666       0.22222222 </v>
    <v>       0.83333334       0.41666666       0.22222222 </v>
    <v>       0.83333334       0.91666666       0.22222222 </v>
    <v>       0.00000000       0.00000000       0.33333334 </v>
    <v>       0.00000000       0.50000000       0.33333334 </v>
    <v>       0.50000000       0.00000000       0.33333334 </v>
    <v>       0.50000000       0.50000000       0.33333334 </v>
    <v>       0.25000000       0.25000000       0.33333334 </v>
    <v>       0.25000000       0.75000000       0.33333334 </v>
    <v>       0.75000000       0.25000000       0.33333334 </v>
    <v>       0.75000000       0.75000000       0.33333334 </v>
    <v>       0.25000000       0.00000000       0.33333334 </v>
    <v>       0.25000000       0.50000000       0.33333334 </v>
    <v>       0.75000000       0.00000000       0.33333334 </v>
    <v>       0.75000000       0.50000000       0.33333334 </v>
    <v>       0.00000000       0.25000000       0.33333334 </v>
    <v>       0.00000000       0.75000000       0.33333334 </v>
    <v>       0.50000000       0.25000000       0.33333334 </v>
    <v>       0.50000000       0.75000000       0.33333334 </v>
    <v>       0.16666667       0.33333334       0.44444445 </v>
    <v>       0.16666667       0.83333334       0.44444445 </v>
    <v>       0.66666667       0.33333334       0.44444445 </v>
    <v>       0.66666667       0.83333334       0.44444445 </v>
    <v>       0.41666666       0.08333334       0.44444445 </v>
    <v>       0.41666666       0.58333334       0.44444445 </v>
    <v>       0.91666666       0.08333334       0.44444445 </v>
    <v>       0.91666666       0.58333334       0.44444445 </v>
    <v>       0.41666666       0.33333334       0.44444445 </v>
    <v>       0.41666666       0.83333334       0.44444445 </v>
    <v>       0.91666666       0.33333334       0.44444445 </v>
    <v>       0.91666666       0.83333334       0.44444445 </v>
    <v>       0.16666667       0.08333334       0.44444445 </v>
    <v>       0.16666667       0.58333334       0.44444445 </v>
    <v>       0.66666667       0.08333334       0.44444445 </v>
    <v>       0.66666667       0.58333334       0.44444445 </v>
    <v>       0.00060404       0.00120809       0.07927097 </v>
    <v>       0.00060404       0.50120809       0.07927097 </v>
    <v>       0.50060404       0.00120809       0.07927097 </v>
    <v>       0.50060404       0.50120809       0.07927097 </v>
    <v>       0.00060404       0.24939596       0.07927100 </v>
    <v>       0.00060404       0.74939596       0.07927100 </v>
    <v>       0.50060404       0.24939596       0.07927100 </v>
    <v>       0.50060404       0.74939596       0.07927100 </v>
    <v>       0.25000000       0.00000000       0.08094485 </v>
    <v>       0.25000000       0.50000000       0.08094485 </v>
    <v>       0.75000000       0.00000000       0.08094485 </v>
    <v>       0.75000000       0.50000000       0.08094485 </v>
    <v>       0.24879191       0.24939596       0.07927100 </v>
    <v>       0.24879191       0.74939596       0.07927100 </v>
    <v>       0.74879191       0.24939596       0.07927100 </v>
    <v>       0.74879191       0.74939596       0.07927100 </v>
    <v>       0.16660331       0.33320661       0.19452973 </v>
    <v>       0.16660331       0.83320661       0.19452973 </v>
    <v>       0.66660331       0.33320661       0.19452973 </v>
    <v>       0.66660331       0.83320661       0.19452973 </v>
    <v>       0.16660331       0.08339670       0.19452973 </v>
    <v>       0.16660331       0.58339670       0.19452973 </v>
    <v>       0.66660331       0.08339670       0.19452973 </v>
    <v>       0.66660331       0.58339670       0.19452973 </v>
[...]
       <r>    -6.2398    18.1310  1058.4456 </r>
       <r>    -6.1692    17.9981  1059.7164 </r>
       <r>    -6.0986     1.4192  1059.8166 </r>
       <r>    -6.0280    13.7534  1060.7877 </r>
       <r>    -5.9573    68.2076  1065.6038 </r>
       <r>    -5.8867    88.2269  1071.8334 </r>
       <r>    -5.8161    61.7153  1076.1911 </r>
       <r>    -5.7455    44.2019  1079.3121 </r>
       <r>    -5.6749    60.0573  1083.5527 </r>
       <r>    -5.6043    71.5234  1088.6029 </r>
       <r>    -5.5337    89.3787  1094.9139 </r>
       <r>    -5.4631    89.5698  1101.2383 </r>
       <r>    -5.3925    66.1377  1105.9082 </r>
       <r>    -5.3219   114.2921  1113.9783 </r>
       <r>    -5.2513   127.8689  1123.0070 </r>
       <r>    -5.1806   109.3214  1130.7261 </r>
       <r>    -5.1100   101.7928  1137.9136 </r>
       <r>    -5.0394    67.5572  1142.6837 </r>
       <r>    -4.9688    47.7777  1146.0573 </r>
       <r>    -4.8982    80.8348  1151.7650 </r>
       <r>    -4.8276    75.7886  1157.1163 </r>
       <r>    -4.7570    59.6758  1161.3300 </r>
       <r>    -4.6864    77.5980  1166.8091 </r>
       <r>    -4.6158    65.0649  1171.4033 </r>
       <r>    -4.5452    68.9092  1176.2689 </r>
       <r>    -4.4746    37.2626  1178.9000 </r>
       <r>    -4.4039    12.8845  1179.8097 </r>
       <r>    -4.3333    47.8687  1183.1897 </r>
       <r>    -4.2627    24.6184  1184.9280 </r>
       <r>    -4.1921    21.0771  1186.4162 </r>
       <r>    -4.1215    12.2767  1187.2831 </r>
       <r>    -4.0509    15.6415  1188.3875 </r>
       <r>    -3.9803    13.5046  1189.3410 </r>
       <r>    -3.9097     4.9007  1189.6871 </r>
       <r>    -3.8391    27.9473  1191.6604 </r>
       <r>    -3.7685    58.2832  1195.7757 </r>
       <r>    -3.6979    41.4353  1198.7014 </r>
       <r>    -3.6272    38.9054  1201.4485 </r>
       <r>    -3.5566    19.5218  1202.8269 </r>
       <r>    -3.4860    19.2078  1204.1832 </r>
       <r>    -3.4154    27.6400  1206.1348 </r>
       <r>    -3.3448    28.9743  1208.1807 </r>
       <r>    -3.2742    22.8712  1209.7956 </r>
       <r>    -3.2036    56.2114  1213.7646 </r>
       <r>    -3.1330   140.7377  1223.7020 </r>
       <r>    -3.0624    96.5990  1230.5227 </r>
       <r>    -2.9918    72.5915  1235.6484 </r>
       <r>    -2.9212    22.2793  1237.2215 </r>
       <r>    -2.8505    41.7976  1240.1728 </r>
       <r>    -2.7799    42.8935  1243.2014 </r>
       <r>    -2.7093    62.0710  1247.5842 </r>
       <r>    -2.6387    55.9558  1251.5352 </r>
       <r>    -2.5681    71.5112  1256.5845 </r>
       <r>    -2.4975    96.4888  1263.3975 </r>
       <r>    -2.4269   134.6853  1272.9075 </r>
       <r>    -2.3563   137.4988  1282.6162 </r>
       <r>    -2.2857   106.2974  1290.1218 </r>
       <r>    -2.2151    67.1324  1294.8619 </r>
       <r>    -2.1445    70.7883  1299.8602 </r>
       <r>    -2.0738    87.5593  1306.0427 </r>
       <r>    -2.0032    99.2753  1313.0524 </r>
       <r>    -1.9326   125.4840  1321.9128 </r>
       <r>    -1.8620   150.1005  1332.5112 </r>
       <r>    -1.7914   139.1766  1342.3384 </r>
       <r>    -1.7208   141.1556  1352.3052 </r>
       <r>    -1.6502   111.8504  1360.2029 </r>
       <r>    -1.5796   122.4336  1368.8478 </r>
       <r>    -1.5090   163.2284  1380.3732 </r>
       <r>    -1.4384   128.8731  1389.4728 </r>
       <r>    -1.3678    56.1251  1393.4358 </r>
       <r>    -1.2971   102.7250  1400.6891 </r>
       <r>    -1.2265   108.4564  1408.3471 </r>
       <r>    -1.1559   121.8856  1416.9533 </r>
       <r>    -1.0853   130.7990  1426.1889 </r>
       <r>    -1.0147   136.6388  1435.8369 </r>
       <r>    -0.9441   112.4885  1443.7796 </r>
       <r>    -0.8735   102.5336  1451.0194 </r>
       <r>    -0.8029    90.4074  1457.4030 </r>
       <r>    -0.7323    97.5188  1464.2887 </r>
       <r>    -0.6617   110.4095  1472.0846 </r>
       <r>    -0.5911   127.5361  1481.0898 </r>
       <r>    -0.5204   114.5437  1489.1776 </r>
       <r>    -0.4498    93.9960  1495.8146 </r>
       <r>    -0.3792    64.1048  1500.3410 </r>
       <r>    -0.3086   101.4321  1507.5030 </r>
       <r>    -0.2380    70.1997  1512.4598 </r>
       <r>    -0.1674    44.4058  1515.5952 </r>
       <r>    -0.0968    34.8855  1518.0584 </r>
       <r>    -0.0262    44.4151  1521.1946 </r>
       <r>     0.0444    25.9638  1523.0278 </r>
       <r>     0.1150    31.6274  1525.2610 </r>
       <r>     0.1856    18.7065  1526.5819 </r>
       <r>     0.2563    22.0275  1528.1372 </r>
       <r>     0.3269    19.6770  1529.5266 </r>
       <r>     0.3975    25.5531  1531.3309 </r>
       <r>     0.4681    17.4763  1532.5648 </r>
       <r>     0.5387    23.3919  1534.2165 </r>
       <r>     0.6093    12.7865  1535.1194 </r>
       <r>     0.6799     4.1969  1535.4157 </r>
       <r>     0.7505     1.9432  1535.5529 </r>
       <r>     0.8211     0.7353  1535.6048 </r>
       <r>     0.8917     4.5401  1535.9254 </r>
       <r>     0.9623    10.6395  1536.6767 </r>
       <r>     1.0330    29.1220  1538.7329 </r>
       <r>     1.1036    29.8984  1540.8440 </r>
       <r>     1.1742    18.3992  1542.1432 </r>
       <r>     1.2448     9.7216  1542.8296 </r>
       <r>     1.3154     1.4526  1542.9322 </r>
       <r>     1.3860    15.6527  1544.0374 </r>
       <r>     1.4566    61.3150  1548.3668 </r>
       <r>     1.5272    49.6741  1551.8742 </r>
       <r>     1.5978    16.6979  1553.0533 </r>
       <r>     1.6684    32.3565  1555.3379 </r>
       <r>     1.7390    50.7342  1558.9202 </r>
       <r>     1.8097    58.1081  1563.0232 </r>
       <r>     1.8803    54.5093  1566.8720 </r>
       <r>     1.9509    55.7200  1570.8064 </r>
       <r>     2.0215    35.3725  1573.3040 </r>
       <r>     2.0921    42.6604  1576.3162 </r>
       <r>     2.1627    33.5677  1578.6864 </r>
       <r>     2.2333    73.6474  1583.8866 </r>
       <r>     2.3039    87.8496  1590.0896 </r>
       <r>     2.3745   110.8081  1597.9136 </r>
       <r>     2.4451   117.4485  1606.2066 </r>
       <r>     2.5157    84.3430  1612.1619 </r>
       <r>     2.5864   106.6826  1619.6947 </r>
       <r>     2.6570   115.9322  1627.8806 </r>
       <r>     2.7276    97.5922  1634.7715 </r>
       <r>     2.7982   115.1792  1642.9042 </r>
       <r>     2.8688   121.1729  1651.4601 </r>
       <r>     2.9394   118.3896  1659.8195 </r>
       <r>     3.0100   117.5414  1668.1189 </r>
       <r>     3.0806   161.7611  1679.5407 </r>
       <r>     3.1512   105.1037  1686.9620 </r>
       <r>     3.2218    97.9604  1693.8789 </r>
       <r>     3.2924    77.1091  1699.3235 </r>
       <r>     3.3631    89.7548  1705.6610 </r>
       <r>     3.4337   111.1096  1713.5064 </r>
       <r>     3.5043    85.7201  1719.5590 </r>
       <r>     3.5749    76.3637  1724.9510 </r>
       <r>     3.6455    79.9121  1730.5935 </r>
       <r>     3.7161    58.2281  1734.7049 </r>
       <r>     3.7867    73.5588  1739.8989 </r>
       <r>     3.8573    82.8684  1745.7501 </r>
       <r>     3.9279   109.4171  1753.4760 </r>
       <r>     3.9985   119.0667  1761.8832 </r>
       <r>     4.0691   103.0685  1769.1607 </r>
       <r>     4.1398    84.8461  1775.1516 </r>
       <r>     4.2104    86.3411  1781.2481 </r>
       <r>     4.2810    95.0759  1787.9613 </r>
       <r>     4.3516    61.8417  1792.3279 </r>
       <r>     4.4222    93.7964  1798.9508 </r>
       <r>     4.4928    96.3814  1805.7562 </r>
       <r>     4.5634    84.3338  1811.7109 </r>
       <r>     4.6340   131.6724  1821.0082 </r>
       <r>     4.7046   129.8910  1830.1797 </r>
       <r>     4.7752   123.9063  1838.9286 </r>
       <r>     4.8458   101.4598  1846.0926 </r>
       <r>     4.9165    25.6795  1847.9058 </r>
       <r>     4.9871     1.3296  1847.9997 </r>
       <r>     5.0577     0.0047  1848.0000 </r>
       <r>     5.1283     0.0000  1848.0000 </r>
       <r>     5.1989     0.0000  1848.0000 </r>
       <r>     5.2695     0.0000  1848.0000 </r>
       <r>     5.3401     0.0000  1848.0000 </r>
       <r>     5.4107     0.0000  1848.0000 </r>
       <r>     5.4813     0.0000  1848.0000 </r>
       <r>     5.5519     0.0000  1848.0000 </r>
       <r>     5.6225     0.0000  1848.0000 </r>
       <r>     5.6932     0.0000  1848.0000 </r>
       <r>     5.7638     0.0000  1848.0000 </r>
       <r>     5.8344     0.0000  1848.0000 </r>
      </set>
     </set>
    </array>
   </total>
  </dos>
 </calculation>
 <structure name="finalpos" >
  <crystal>
   <varray name="basis" >
    <v>      17.03433609       0.00000000       0.00000000 </v>
    <v>      -8.51716805      14.75216779       0.00000000 </v>
    <v>       0.00000000       0.00000000      31.29407310 </v>
   </varray>
   <i name="volume">   7863.99353597 </i>
   <varray name="rec_basis" >
    <v>       0.05870496       0.03389332       0.00000000 </v>
    <v>       0.00000000       0.06778665       0.00000000 </v>
    <v>       0.00000000       0.00000000       0.03195493 </v>
   </varray>
  </crystal>
  <varray name="positions" >
   <v>       0.04937474       0.40040636       0.99613444 </v>
   <v>       0.04889542       0.89944771       0.99568253 </v>
   <v>       0.54889542       0.39944771       0.99568253 </v>
   <v>       0.54889542       0.89944771       0.99568253 </v>
   <v>       0.35055229       0.39944771       0.99568253 </v>
   <v>       0.35055229       0.89944771       0.99568253 </v>
   <v>       0.85055229       0.39944771       0.99568253 </v>
   <v>       0.85055229       0.89944771       0.99568253 </v>
   <v>       0.35055229       0.20110457       0.99568253 </v>
   <v>       0.35055229       0.70110457       0.99568253 </v>
   <v>       0.85055229       0.20110457       0.99568253 </v>
   <v>       0.85055229       0.70110457       0.99568253 </v>
   <v>       0.02661586       0.05323172       0.99490245 </v>
   <v>       0.02661586       0.55323172       0.99490245 </v>
   <v>       0.52661586       0.05323172       0.99490245 </v>
   <v>       0.52661586       0.55323172       0.99490245 </v>
   <v>       0.19676828       0.22338414       0.99490245 </v>
   <v>       0.19676828       0.72338414       0.99490245 </v>
   <v>       0.69676828       0.22338414       0.99490245 </v>
   <v>       0.69676828       0.72338414       0.99490245 </v>
   <v>       0.25000000       0.00000000       0.99493075 </v>
   <v>       0.25000000       0.50000000       0.99493075 </v>
   <v>       0.75000000       0.00000000       0.99493075 </v>
   <v>       0.75000000       0.50000000       0.99493075 </v>
   <v>       0.02661586       0.22338414       0.99490245 </v>
   <v>       0.02661586       0.72338414       0.99490245 </v>
   <v>       0.52661586       0.22338414       0.99490245 </v>
   <v>       0.52661586       0.72338414       0.99490245 </v>
   <v>       0.16687125       0.33374251       0.11114905 </v>
   <v>       0.16687125       0.83374251       0.11114905 </v>
   <v>       0.66687125       0.33374251       0.11114905 </v>
   <v>       0.66687125       0.83374251       0.11114905 </v>
   <v>       0.41625749       0.08312875       0.11114905 </v>
   <v>       0.41625749       0.58312875       0.11114905 </v>
   <v>       0.91625749       0.08312875       0.11114905 </v>
   <v>       0.91625749       0.58312875       0.11114905 </v>
   <v>       0.41666666       0.33333334       0.10951073 </v>
   <v>       0.41666666       0.83333334       0.10951073 </v>
   <v>       0.91666666       0.33333334       0.10951073 </v>
   <v>       0.91666666       0.83333334       0.10951073 </v>
   <v>       0.16687125       0.08312875       0.11114905 </v>
   <v>       0.16687125       0.58312875       0.11114905 </v>
   <v>       0.66687125       0.08312875       0.11114905 </v>
   <v>       0.66687125       0.58312875       0.11114905 </v>
   <v>       0.33333334       0.16666667       0.22222222 </v>
   <v>       0.33333334       0.66666667       0.22222222 </v>
   <v>       0.83333334       0.16666667       0.22222222 </v>
   <v>       0.83333334       0.66666667       0.22222222 </v>
   <v>       0.08333331       0.41666666       0.22222222 </v>
   <v>       0.08333331       0.91666666       0.22222222 </v>
   <v>       0.58333331       0.41666666       0.22222222 </v>
   <v>       0.58333331       0.91666666       0.22222222 </v>
   <v>       0.08333331       0.16666669       0.22222222 </v>
   <v>       0.08333331       0.66666669       0.22222222 </v>
   <v>       0.58333331       0.16666669       0.22222222 </v>
   <v>       0.58333331       0.66666669       0.22222222 </v>
   <v>       0.33333334       0.41666666       0.22222222 </v>
   <v>       0.33333334       0.91666666       0.22222222 </v>
   <v>       0.83333334       0.41666666       0.22222222 </v>
   <v>       0.83333334       0.91666666       0.22222222 </v>
   <v>       0.00000000       0.00000000       0.33333334 </v>
   <v>       0.00000000       0.50000000       0.33333334 </v>
   <v>       0.50000000       0.00000000       0.33333334 </v>
   <v>       0.50000000       0.50000000       0.33333334 </v>
   <v>       0.25000000       0.25000000       0.33333334 </v>
   <v>       0.25000000       0.75000000       0.33333334 </v>
   <v>       0.75000000       0.25000000       0.33333334 </v>
   <v>       0.75000000       0.75000000       0.33333334 </v>
   <v>       0.25000000       0.00000000       0.33333334 </v>
   <v>       0.25000000       0.50000000       0.33333334 </v>
   <v>       0.75000000       0.00000000       0.33333334 </v>
   <v>       0.75000000       0.50000000       0.33333334 </v>
   <v>       0.00000000       0.25000000       0.33333334 </v>
   <v>       0.00000000       0.75000000       0.33333334 </v>
   <v>       0.50000000       0.25000000       0.33333334 </v>
   <v>       0.50000000       0.75000000       0.33333334 </v>
   <v>       0.16666667       0.33333334       0.44444445 </v>
   <v>       0.16666667       0.83333334       0.44444445 </v>
   <v>       0.66666667       0.33333334       0.44444445 </v>
   <v>       0.66666667       0.83333334       0.44444445 </v>
   <v>       0.41666666       0.08333334       0.44444445 </v>
   <v>       0.41666666       0.58333334       0.44444445 </v>
   <v>       0.91666666       0.08333334       0.44444445 </v>
   <v>       0.91666666       0.58333334       0.44444445 </v>
   <v>       0.41666666       0.33333334       0.44444445 </v>
   <v>       0.41666666       0.83333334       0.44444445 </v>
   <v>       0.91666666       0.33333334       0.44444445 </v>
   <v>       0.91666666       0.83333334       0.44444445 </v>
   <v>       0.16666667       0.08333334       0.44444445 </v>
   <v>       0.16666667       0.58333334       0.44444445 </v>
   <v>       0.66666667       0.08333334       0.44444445 </v>
   <v>       0.66666667       0.58333334       0.44444445 </v>
   <v>       0.00060404       0.00120809       0.07927097 </v>
   <v>       0.00060404       0.50120809       0.07927097 </v>
   <v>       0.50060404       0.00120809       0.07927097 </v>
   <v>       0.50060404       0.50120809       0.07927097 </v>
   <v>       0.00060404       0.24939596       0.07927100 </v>
   <v>       0.00060404       0.74939596       0.07927100 </v>
   <v>       0.50060404       0.24939596       0.07927100 </v>
   <v>       0.50060404       0.74939596       0.07927100 </v>
   <v>       0.25000000       0.00000000       0.08094485 </v>
   <v>       0.25000000       0.50000000       0.08094485 </v>
   <v>       0.75000000       0.00000000       0.08094485 </v>
   <v>       0.75000000       0.50000000       0.08094485 </v>
   <v>       0.24879191       0.24939596       0.07927100 </v>
   <v>       0.24879191       0.74939596       0.07927100 </v>
   <v>       0.74879191       0.24939596       0.07927100 </v>
   <v>       0.74879191       0.74939596       0.07927100 </v>
   <v>       0.16660331       0.33320661       0.19452973 </v>
   <v>       0.16660331       0.83320661       0.19452973 </v>
   <v>       0.66660331       0.33320661       0.19452973 </v>
   <v>       0.66660331       0.83320661       0.19452973 </v>
   <v>       0.16660331       0.08339670       0.19452973 </v>
   <v>       0.16660331       0.58339670       0.19452973 </v>
   <v>       0.66660331       0.08339670       0.19452973 </v>
   <v>       0.66660331       0.58339670       0.19452973 </v>
   <v>       0.41666666       0.33333334       0.19342860 </v>
   <v>       0.41666666       0.83333334       0.19342860 </v>
   <v>       0.91666666       0.33333334       0.19342860 </v>
   <v>       0.91666666       0.83333334       0.19342860 </v>
   <v>       0.41679339       0.08339670       0.19452973 </v>
   <v>       0.41679339       0.58339670       0.19452973 </v>
   <v>       0.91679339       0.08339670       0.19452973 </v>
   <v>       0.91679339       0.58339670       0.19452973 </v>
   <v>       0.33333334       0.16666667       0.30555555 </v>
   <v>       0.33333334       0.66666667       0.30555555 </v>
   <v>       0.83333334       0.16666667       0.30555555 </v>
   <v>       0.83333334       0.66666667       0.30555555 </v>
   <v>       0.33333334       0.41666666       0.30555555 </v>
   <v>       0.33333334       0.91666666       0.30555555 </v>
   <v>       0.83333334       0.41666666       0.30555555 </v>
   <v>       0.83333334       0.91666666       0.30555555 </v>
   <v>       0.08333331       0.16666669       0.30555555 </v>
   <v>       0.08333331       0.66666669       0.30555555 </v>
   <v>       0.58333331       0.16666669       0.30555555 </v>
   <v>       0.58333331       0.66666669       0.30555555 </v>
   <v>       0.08333331       0.41666666       0.30555555 </v>
   <v>       0.08333331       0.91666666       0.30555555 </v>
   <v>       0.58333331       0.41666666       0.30555555 </v>
   <v>       0.58333331       0.91666666       0.30555555 </v>
   <v>       0.00000000       0.00000000       0.41666666 </v>
   <v>       0.00000000       0.50000000       0.41666666 </v>
   <v>       0.50000000       0.00000000       0.41666666 </v>
   <v>       0.50000000       0.50000000       0.41666666 </v>
   <v>       0.00000000       0.25000000       0.41666666 </v>
   <v>       0.00000000       0.75000000       0.41666666 </v>
   <v>       0.50000000       0.25000000       0.41666666 </v>
   <v>       0.50000000       0.75000000       0.41666666 </v>
   <v>       0.25000000       0.00000000       0.41666666 </v>
   <v>       0.25000000       0.50000000       0.41666666 </v>
   <v>       0.75000000       0.00000000       0.41666666 </v>
   <v>       0.75000000       0.50000000       0.41666666 </v>
   <v>       0.25000000       0.25000000       0.41666666 </v>
   <v>       0.25000000       0.75000000       0.41666666 </v>
   <v>       0.75000000       0.25000000       0.41666666 </v>
   <v>       0.75000000       0.75000000       0.41666666 </v>
   <v>       0.16666667       0.33333334       0.50007080 </v>
   <v>       0.16666667       0.83333334       0.50007080 </v>
   <v>       0.66666667       0.33333334       0.50007080 </v>
   <v>       0.66666667       0.83333334       0.50007080 </v>
   <v>       0.16666667       0.08333334       0.50007080 </v>
   <v>       0.16666667       0.58333334       0.50007080 </v>
   <v>       0.66666667       0.08333334       0.50007080 </v>
   <v>       0.66666667       0.58333334       0.50007080 </v>
   <v>       0.41666666       0.33333334       0.50007080 </v>
   <v>       0.41666666       0.83333334       0.50007080 </v>
   <v>       0.91666666       0.33333334       0.50007080 </v>
   <v>       0.91666666       0.83333334       0.50007080 </v>
   <v>       0.41666666       0.08333334       0.50007080 </v>
   <v>       0.41666666       0.58333334       0.50007080 </v>
   <v>       0.91666666       0.08333334       0.50007080 </v>
   <v>       0.91666666       0.58333334       0.50007080 </v>
  </varray>
 </structure>
</modeling>
