<?xml version="1.0" encoding="ISO-8859-1"?>
<modeling>
 <generator>
  <i name="program" type="string">vasp </i>
  <i name="version" type="string">5.4.4.18Apr17-6-g9f103f2a35  </i>
  <i name="subversion" type="string">(build Feb 09 2021 16:27:36) complex            parallel </i>
  <i name="platform" type="string">IFC15_impi </i>
  <i name="date" type="string">2021 04 29 </i>
  <i name="time" type="string">03:45:08 </i>
 </generator>
 <incar>
  <i type="int" name="ISTART">     0</i>
  <i type="string" name="PREC">a</i>
  <i type="logical" name="ADDGRID"> T  </i>
  <i type="int" name="NELM">   300</i>
  <i type="int" name="NELMIN">     5</i>
  <i type="int" name="IBRION">    -1</i>
  <i name="EDIFF">      0.00000001</i>
  <i name="ENCUT">    500.00000000</i>
  <i type="logical" name="LREAL"> F  </i>
  <i type="int" name="ISMEAR">     0</i>
  <i name="SIGMA">      0.05000000</i>
  <i type="logical" name="LWAVE"> F  </i>
  <i type="logical" name="LCHARG"> F  </i>
  <v type="int" name="KPOINT_BSE">    -1     0     0     0</v>
  <i type="int" name="NELM">   300</i>
  <i type="logical" name="LDIPOL"> T  </i>
  <i type="int" name="IDIPOL">     3</i>
 </incar>
 <structure name="primitive_cell" >
  <crystal>
   <varray name="basis" >
    <v>      17.03433609       0.00000000       0.00000000 </v>
    <v>      -8.51716805      14.75216779       0.00000000 </v>
    <v>       0.00000000       0.00000000      31.29407310 </v>
   </varray>
   <i name="volume">   7863.99353597 </i>
   <varray name="rec_basis" >
    <v>       0.05870496       0.03389332       0.00000000 </v>
    <v>       0.00000000       0.06778665       0.00000000 </v>
    <v>       0.00000000       0.00000000       0.03195493 </v>
   </varray>
  </crystal>
  <varray name="positions" >
   <v>       0.04889542       0.39944771      -0.00431747 </v>
   <v>       0.02661586       0.22338414      -0.00509755 </v>
   <v>       0.02661586      -0.44676828      -0.00509755 </v>
   <v>       0.25000000      -0.50000000      -0.00506925 </v>
   <v>      -0.14944771       0.39944771      -0.00431747 </v>
   <v>      -0.14944771       0.20110457      -0.00431747 </v>
   <v>       0.00060404      -0.49879191       0.07927097 </v>
   <v>       0.00060404       0.24939596       0.07927100 </v>
   <v>       0.25000000      -0.50000000       0.08094485 </v>
   <v>      -0.08333334       0.33333334       0.10951073 </v>
   <v>       0.16687125       0.33374251       0.11114905 </v>
   <v>       0.16687125      -0.41687125       0.11114905 </v>
   <v>       0.19676828       0.22338414      -0.00509755 </v>
   <v>       0.19676828      -0.27661586      -0.00509755 </v>
   <v>       0.35055229      -0.29889543      -0.00431747 </v>
   <v>       0.35055229       0.39944771      -0.00431747 </v>
   <v>      -0.25120809       0.24939596       0.07927100 </v>
   <v>      -0.30323172       0.22338414      -0.00509755 </v>
   <v>       0.02661586      -0.27661586      -0.00509755 </v>
   <v>       0.02613653       0.05227307      -0.00554946 </v>
   <v>       0.24879191       0.24939596       0.07927100 </v>
   <v>       0.24879191      -0.25060404       0.07927100 </v>
   <v>      -0.08374251       0.08312875       0.11114905 </v>
   <v>      -0.08374251      -0.41687125       0.11114905 </v>
   <v>      -0.25000000       0.00000000      -0.00506925 </v>
   <v>      -0.25000000      -0.50000000      -0.00506925 </v>
   <v>      -0.08333334       0.33333334       0.19342860 </v>
   <v>       0.41625749      -0.41687125       0.11114905 </v>
   <v>      -0.25000000       0.00000000       0.08094485 </v>
   <v>      -0.25000000      -0.50000000       0.08094485 </v>
   <v>       0.16660331       0.33320661       0.19452973 </v>
   <v>       0.16660331      -0.41660330       0.19452973 </v>
   <v>       0.00060404       0.00120809       0.07927097 </v>
   <v>       0.00060404      -0.25060404       0.07927100 </v>
   <v>      -0.33312875       0.08312875       0.11114905 </v>
   <v>      -0.33312875       0.33374251       0.11114905 </v>
   <v>       0.08333331       0.41666666       0.22222222 </v>
   <v>      -0.47338414      -0.44676828      -0.00509755 </v>
   <v>      -0.47338414      -0.27661586      -0.00509755 </v>
   <v>      -0.14944771      -0.29889543      -0.00431747 </v>
   <v>       0.35055229      -0.10055229      -0.00431747 </v>
   <v>      -0.14944771      -0.10055229      -0.00431747 </v>
   <v>       0.35055229       0.20110457      -0.00431747 </v>
   <v>      -0.49939596      -0.49879191       0.07927097 </v>
   <v>      -0.49939596      -0.25060404       0.07927100 </v>
   <v>       0.16687125       0.08312875       0.11114905 </v>
   <v>       0.16687125      -0.16625749       0.11114905 </v>
   <v>       0.41666666       0.33333334       0.10951073 </v>
   <v>       0.41666666      -0.16666666       0.10951073 </v>
   <v>      -0.08320661       0.08339670       0.19452973 </v>
   <v>      -0.08320661      -0.41660330       0.19452973 </v>
   <v>      -0.47338414       0.05323172      -0.00509755 </v>
   <v>      -0.47338414       0.22338414      -0.00509755 </v>
   <v>      -0.16666666       0.41666666       0.22222222 </v>
   <v>      -0.16666666       0.16666667       0.22222222 </v>
   <v>       0.41679339      -0.41660330       0.19452973 </v>
   <v>       0.08333331       0.16666669       0.22222222 </v>
   <v>       0.08333331      -0.33333331       0.22222222 </v>
   <v>       0.33333334      -0.33333333       0.22222222 </v>
   <v>       0.33333334       0.41666666       0.22222222 </v>
   <v>      -0.45110458       0.39944771      -0.00431747 </v>
   <v>       0.04889542      -0.10055229      -0.00431747 </v>
   <v>      -0.45110458      -0.10055229      -0.00431747 </v>
   <v>      -0.33339669       0.08339670       0.19452973 </v>
   <v>      -0.33339669       0.33320661       0.19452973 </v>
   <v>      -0.49939596       0.00120809       0.07927097 </v>
   <v>      -0.49939596       0.24939596       0.07927100 </v>
   <v>       0.25000000       0.00000000      -0.00506925 </v>
   <v>       0.16660331       0.08339670       0.19452973 </v>
   <v>       0.16660331      -0.16679339       0.19452973 </v>
   <v>      -0.33312875      -0.16625749       0.11114905 </v>
   <v>      -0.33312875      -0.41687125       0.11114905 </v>
   <v>       0.41666666       0.33333334       0.19342860 </v>
   <v>       0.41666666      -0.16666666       0.19342860 </v>
   <v>       0.25000000       0.00000000       0.08094485 </v>
   <v>      -0.08333334      -0.16666666       0.10951073 </v>
   <v>      -0.30323172      -0.27661586      -0.00509755 </v>
   <v>       0.08333331       0.41666666       0.30555555 </v>
   <v>      -0.41666669       0.16666669       0.22222222 </v>
   <v>      -0.25120809      -0.25060404       0.07927100 </v>
   <v>       0.41625749       0.08312875       0.11114905 </v>
   <v>      -0.16666666      -0.33333333       0.22222222 </v>
   <v>      -0.16666666      -0.08333334       0.22222222 </v>
   <v>       0.33333334      -0.08333334       0.22222222 </v>
   <v>       0.33333334       0.16666667       0.22222222 </v>
   <v>      -0.16666666       0.41666666       0.30555555 </v>
   <v>      -0.16666666       0.16666667       0.30555555 </v>
   <v>      -0.33339669      -0.16679339       0.19452973 </v>
   <v>      -0.33339669      -0.41660330       0.19452973 </v>
   <v>      -0.41666669      -0.33333331       0.22222222 </v>
   <v>       0.08333331       0.16666669       0.30555555 </v>
   <v>       0.08333331      -0.33333331       0.30555555 </v>
   <v>      -0.08333334      -0.16666666       0.19342860 </v>
   <v>      -0.41666669       0.41666666       0.22222222 </v>
   <v>      -0.41666669      -0.08333334       0.22222222 </v>
   <v>       0.33333334      -0.33333333       0.30555555 </v>
   <v>       0.33333334       0.41666666       0.30555555 </v>
   <v>       0.00000000       0.25000000       0.33333334 </v>
   <v>       0.00000000      -0.50000000       0.33333334 </v>
   <v>       0.25000000      -0.50000000       0.33333334 </v>
   <v>       0.08333331      -0.08333334       0.22222222 </v>
   <v>       0.41679339       0.08339670       0.19452973 </v>
   <v>      -0.25000000       0.25000000       0.33333334 </v>
   <v>       0.25000000       0.25000000       0.33333334 </v>
   <v>       0.25000000      -0.25000000       0.33333334 </v>
   <v>      -0.41666669       0.16666669       0.30555555 </v>
   <v>      -0.16666666      -0.33333333       0.30555555 </v>
   <v>      -0.16666666      -0.08333334       0.30555555 </v>
   <v>      -0.25000000       0.00000000       0.33333334 </v>
   <v>      -0.25000000      -0.50000000       0.33333334 </v>
   <v>       0.33333334      -0.08333334       0.30555555 </v>
   <v>       0.33333334       0.16666667       0.30555555 </v>
   <v>       0.00000000       0.00000000       0.33333334 </v>
   <v>       0.00000000      -0.25000000       0.33333334 </v>
   <v>      -0.41666669      -0.33333331       0.30555555 </v>
   <v>      -0.41666669       0.41666666       0.30555555 </v>
   <v>      -0.41666669      -0.08333334       0.30555555 </v>
   <v>      -0.50000000      -0.50000000       0.33333334 </v>
   <v>      -0.50000000      -0.25000000       0.33333334 </v>
   <v>       0.08333331      -0.08333334       0.30555555 </v>
   <v>       0.00000000       0.25000000       0.41666666 </v>
   <v>       0.00000000      -0.50000000       0.41666666 </v>
   <v>      -0.50000000       0.00000000       0.33333334 </v>
   <v>      -0.50000000       0.25000000       0.33333334 </v>
   <v>       0.25000000      -0.50000000       0.41666666 </v>
   <v>       0.25000000       0.00000000       0.33333334 </v>
   <v>      -0.25000000       0.25000000       0.41666666 </v>
   <v>       0.25000000       0.25000000       0.41666666 </v>
   <v>       0.25000000      -0.25000000       0.41666666 </v>
   <v>      -0.08333334       0.33333334       0.44444445 </v>
   <v>      -0.25000000      -0.25000000       0.33333334 </v>
   <v>       0.16666667       0.33333334       0.44444445 </v>
   <v>       0.16666667      -0.41666666       0.44444445 </v>
   <v>      -0.25000000       0.00000000       0.41666666 </v>
   <v>      -0.25000000      -0.50000000       0.41666666 </v>
   <v>       0.00000000       0.00000000       0.41666666 </v>
   <v>       0.00000000      -0.25000000       0.41666666 </v>
   <v>      -0.08333334       0.08333334       0.44444445 </v>
   <v>      -0.08333334      -0.41666666       0.44444445 </v>
   <v>      -0.50000000      -0.50000000       0.41666666 </v>
   <v>      -0.50000000      -0.25000000       0.41666666 </v>
   <v>       0.41666666      -0.41666666       0.44444445 </v>
   <v>      -0.33333333       0.08333334       0.44444445 </v>
   <v>      -0.33333333       0.33333334       0.44444445 </v>
   <v>       0.16666667       0.08333334       0.44444445 </v>
   <v>       0.16666667      -0.16666666       0.44444445 </v>
   <v>      -0.50000000       0.00000000       0.41666666 </v>
   <v>      -0.50000000       0.25000000       0.41666666 </v>
   <v>      -0.08333334       0.33333334      -0.49992920 </v>
   <v>       0.41666666       0.33333334       0.44444445 </v>
   <v>       0.41666666      -0.16666666       0.44444445 </v>
   <v>       0.16666667       0.33333334      -0.49992920 </v>
   <v>       0.16666667      -0.41666666      -0.49992920 </v>
   <v>       0.25000000       0.00000000       0.41666666 </v>
   <v>      -0.08333334       0.08333334      -0.49992920 </v>
   <v>      -0.08333334      -0.41666666      -0.49992920 </v>
   <v>      -0.25000000      -0.25000000       0.41666666 </v>
   <v>      -0.33333333      -0.16666666       0.44444445 </v>
   <v>      -0.33333333      -0.41666666       0.44444445 </v>
   <v>       0.41666666      -0.41666666      -0.49992920 </v>
   <v>      -0.08333334      -0.16666666       0.44444445 </v>
   <v>      -0.33333333       0.08333334      -0.49992920 </v>
   <v>      -0.33333333       0.33333334      -0.49992920 </v>
   <v>       0.41666666       0.08333334       0.44444445 </v>
   <v>       0.16666667       0.08333334      -0.49992920 </v>
   <v>       0.16666667      -0.16666666      -0.49992920 </v>
   <v>       0.41666666       0.33333334      -0.49992920 </v>
   <v>       0.41666666      -0.16666666      -0.49992920 </v>
   <v>      -0.33333333      -0.16666666      -0.49992920 </v>
   <v>      -0.33333333      -0.41666666      -0.49992920 </v>
   <v>      -0.08333334      -0.16666666      -0.49992920 </v>
   <v>       0.41666666       0.08333334      -0.49992920 </v>
  </varray>
 </structure>
 <varray name="primitive_index" >
  <v type="int" >        1 </v>
  <v type="int" >       25 </v>
  <v type="int" >       14 </v>
  <v type="int" >       22 </v>
  <v type="int" >        7 </v>
  <v type="int" >       11 </v>
  <v type="int" >       94 </v>
  <v type="int" >       97 </v>
  <v type="int" >      102 </v>
  <v type="int" >       39 </v>
  <v type="int" >       29 </v>
  <v type="int" >       42 </v>
  <v type="int" >       17 </v>
  <v type="int" >       18 </v>
  <v type="int" >       10 </v>
  <v type="int" >        5 </v>
  <v type="int" >      107 </v>
  <v type="int" >       19 </v>
  <v type="int" >       26 </v>
  <v type="int" >       13 </v>
  <v type="int" >      105 </v>
  <v type="int" >      106 </v>
  <v type="int" >       35 </v>
  <v type="int" >       36 </v>
  <v type="int" >       23 </v>
  <v type="int" >       24 </v>
  <v type="int" >      119 </v>
  <v type="int" >       34 </v>
  <v type="int" >      103 </v>
  <v type="int" >      104 </v>
  <v type="int" >      109 </v>
  <v type="int" >      114 </v>
  <v type="int" >       93 </v>
  <v type="int" >       98 </v>
  <v type="int" >       43 </v>
  <v type="int" >       31 </v>
  <v type="int" >       49 </v>
  <v type="int" >       16 </v>
  <v type="int" >       28 </v>
  <v type="int" >       12 </v>
  <v type="int" >        6 </v>
  <v type="int" >        8 </v>
  <v type="int" >        9 </v>
  <v type="int" >       96 </v>
  <v type="int" >      100 </v>
  <v type="int" >       41 </v>
  <v type="int" >       30 </v>
  <v type="int" >       37 </v>
  <v type="int" >       38 </v>
  <v type="int" >      123 </v>
  <v type="int" >      124 </v>
  <v type="int" >       15 </v>
  <v type="int" >       27 </v>
  <v type="int" >       59 </v>
  <v type="int" >       47 </v>
  <v type="int" >      122 </v>
  <v type="int" >       53 </v>
  <v type="int" >       54 </v>
  <v type="int" >       46 </v>
  <v type="int" >       57 </v>
  <v type="int" >        3 </v>
  <v type="int" >        2 </v>
  <v type="int" >        4 </v>
  <v type="int" >      115 </v>
  <v type="int" >      111 </v>
  <v type="int" >       95 </v>
  <v type="int" >       99 </v>
  <v type="int" >       21 </v>
  <v type="int" >      113 </v>
  <v type="int" >      110 </v>
  <v type="int" >       32 </v>
  <v type="int" >       44 </v>
  <v type="int" >      117 </v>
  <v type="int" >      118 </v>
  <v type="int" >      101 </v>
  <v type="int" >       40 </v>
  <v type="int" >       20 </v>
  <v type="int" >      137 </v>
  <v type="int" >       55 </v>
  <v type="int" >      108 </v>
  <v type="int" >       33 </v>
  <v type="int" >       48 </v>
  <v type="int" >       60 </v>
  <v type="int" >       58 </v>
  <v type="int" >       45 </v>
  <v type="int" >      131 </v>
  <v type="int" >      127 </v>
  <v type="int" >      112 </v>
  <v type="int" >      116 </v>
  <v type="int" >       56 </v>
  <v type="int" >      133 </v>
  <v type="int" >      134 </v>
  <v type="int" >      120 </v>
  <v type="int" >       51 </v>
  <v type="int" >       52 </v>
  <v type="int" >      126 </v>
  <v type="int" >      129 </v>
  <v type="int" >       73 </v>
  <v type="int" >       62 </v>
  <v type="int" >       70 </v>
  <v type="int" >       50 </v>
  <v type="int" >      121 </v>
  <v type="int" >       67 </v>
  <v type="int" >       65 </v>
  <v type="int" >       66 </v>
  <v type="int" >      135 </v>
  <v type="int" >      128 </v>
  <v type="int" >      132 </v>
  <v type="int" >       71 </v>
  <v type="int" >       72 </v>
  <v type="int" >      130 </v>
  <v type="int" >      125 </v>
  <v type="int" >       61 </v>
  <v type="int" >       74 </v>
  <v type="int" >      136 </v>
  <v type="int" >      139 </v>
  <v type="int" >      140 </v>
  <v type="int" >       64 </v>
  <v type="int" >       76 </v>
  <v type="int" >      138 </v>
  <v type="int" >      145 </v>
  <v type="int" >      142 </v>
  <v type="int" >       63 </v>
  <v type="int" >       75 </v>
  <v type="int" >      150 </v>
  <v type="int" >       69 </v>
  <v type="int" >      155 </v>
  <v type="int" >      153 </v>
  <v type="int" >      154 </v>
  <v type="int" >       87 </v>
  <v type="int" >       68 </v>
  <v type="int" >       77 </v>
  <v type="int" >       90 </v>
  <v type="int" >      151 </v>
  <v type="int" >      152 </v>
  <v type="int" >      141 </v>
  <v type="int" >      146 </v>
  <v type="int" >       83 </v>
  <v type="int" >       84 </v>
  <v type="int" >      144 </v>
  <v type="int" >      148 </v>
  <v type="int" >       82 </v>
  <v type="int" >       91 </v>
  <v type="int" >       79 </v>
  <v type="int" >       89 </v>
  <v type="int" >       78 </v>
  <v type="int" >      143 </v>
  <v type="int" >      147 </v>
  <v type="int" >      167 </v>
  <v type="int" >       85 </v>
  <v type="int" >       86 </v>
  <v type="int" >      157 </v>
  <v type="int" >      162 </v>
  <v type="int" >      149 </v>
  <v type="int" >      171 </v>
  <v type="int" >      172 </v>
  <v type="int" >      156 </v>
  <v type="int" >       80 </v>
  <v type="int" >       92 </v>
  <v type="int" >      170 </v>
  <v type="int" >       88 </v>
  <v type="int" >      163 </v>
  <v type="int" >      159 </v>
  <v type="int" >       81 </v>
  <v type="int" >      161 </v>
  <v type="int" >      158 </v>
  <v type="int" >      165 </v>
  <v type="int" >      166 </v>
  <v type="int" >      160 </v>
  <v type="int" >      164 </v>
  <v type="int" >      168 </v>
  <v type="int" >      169 </v>
 </varray>
 <kpoints>
  <generation param="Gamma">
   <v type="int" name="divisions">       3        3        1 </v>
   <v name="usershift">      0.00000000       0.00000000       0.00000000 </v>
   <v name="genvec1">      0.33333333      -0.00000000       0.00000000 </v>
   <v name="genvec2">      0.00000000       0.33333333       0.00000000 </v>
   <v name="genvec3">      0.00000000       0.00000000       1.00000000 </v>
   <v name="shift">      0.00000000       0.00000000       0.00000000 </v>
  </generation>
  <varray name="kpointlist" >
   <v>       0.00000000       0.00000000       0.00000000 </v>
   <v>       0.33333333      -0.00000000       0.00000000 </v>
   <v>       0.00000000       0.33333333       0.00000000 </v>
   <v>       0.33333333       0.33333333       0.00000000 </v>
  </varray>
  <varray name="weights" >
   <v>       0.11111111 </v>
   <v>       0.44444444 </v>
   <v>       0.22222222 </v>
   <v>       0.22222222 </v>
  </varray>
 </kpoints>
 <parameters>
  <separator name="general" >
   <i type="string" name="SYSTEM">unknown system</i>
   <i type="logical" name="LCOMPAT"> F  </i>
  </separator>
  <separator name="electronic" >
   <i type="string" name="PREC">a</i>
   <i name="ENMAX">    500.00000000</i>
   <i name="ENAUG">    462.75800000</i>
   <i name="EDIFF">      0.00000001</i>
   <i type="int" name="IALGO">    38</i>
   <i type="int" name="IWAVPR">    10</i>
   <i type="int" name="NBANDS">   924</i>
   <i name="NELECT">   1536.00000000</i>
   <i type="int" name="TURBO">     0</i>
   <i type="int" name="IRESTART">     0</i>
   <i type="int" name="NREBOOT">     0</i>
   <i type="int" name="NMIN">     0</i>
   <i name="EREF">      0.00000000</i>
   <separator name="electronic smearing" >
    <i type="int" name="ISMEAR">     0</i>
    <i name="SIGMA">      0.05000000</i>
    <i name="KSPACING">      0.50000000</i>
    <i type="logical" name="KGAMMA"> T  </i>
   </separator>
   <separator name="electronic projectors" >
    <i type="logical" name="LREAL"> F  </i>
    <v name="ROPT">      0.00000000      0.00000000      0.00000000</v>
    <i type="int" name="LMAXPAW">  -100</i>
    <i type="int" name="LMAXMIX">     2</i>
    <i type="logical" name="NLSPLINE"> F  </i>
   </separator>
   <separator name="electronic startup" >
    <i type="int" name="ISTART">     0</i>
    <i type="int" name="ICHARG">     2</i>
    <i type="int" name="INIWAV">     1</i>
   </separator>
   <separator name="electronic spin" >
    <i type="int" name="ISPIN">     1</i>
    <i type="logical" name="LNONCOLLINEAR"> F  </i>
    <v name="MAGMOM">      1.00000000      1.00000000      1.00000000      1.00000000      1.00000000      1.00000000      1.00000000      1.00000000      1.00000000      1.00000000      1.00000000      1.00000000      1.00000000      1.00000000      1.00000000      1.00000000      1.00000000      1.00000000      1.00000000      1.00000000
      1.00000000      1.00000000      1.00000000      1.00000000      1.00000000      1.00000000      1.00000000      1.00000000      1.00000000      1.00000000      1.00000000      1.00000000      1.00000000      1.00000000      1.00000000      1.00000000      1.00000000      1.00000000      1.00000000      1.00000000
      1.00000000      1.00000000      1.00000000      1.00000000      1.00000000      1.00000000      1.00000000      1.00000000      1.00000000      1.00000000      1.00000000      1.00000000      1.00000000      1.00000000      1.00000000      1.00000000      1.00000000      1.00000000      1.00000000      1.00000000
      1.00000000      1.00000000      1.00000000      1.00000000      1.00000000      1.00000000      1.00000000      1.00000000      1.00000000      1.00000000      1.00000000      1.00000000      1.00000000      1.00000000      1.00000000      1.00000000      1.00000000      1.00000000      1.00000000      1.00000000
      1.00000000      1.00000000      1.00000000      1.00000000      1.00000000      1.00000000      1.00000000      1.00000000      1.00000000      1.00000000      1.00000000      1.00000000      1.00000000      1.00000000      1.00000000      1.00000000      1.00000000      1.00000000      1.00000000      1.00000000
      1.00000000      1.00000000      1.00000000      1.00000000      1.00000000      1.00000000      1.00000000      1.00000000      1.00000000      1.00000000      1.00000000      1.00000000      1.00000000      1.00000000      1.00000000      1.00000000      1.00000000      1.00000000      1.00000000      1.00000000
      1.00000000      1.00000000      1.00000000      1.00000000      1.00000000      1.00000000      1.00000000      1.00000000      1.00000000      1.00000000      1.00000000      1.00000000      1.00000000      1.00000000      1.00000000      1.00000000      1.00000000      1.00000000      1.00000000      1.00000000
      1.00000000      1.00000000      1.00000000      1.00000000      1.00000000      1.00000000      1.00000000      1.00000000      1.00000000      1.00000000      1.00000000      1.00000000      1.00000000      1.00000000      1.00000000      1.00000000      1.00000000      1.00000000      1.00000000      1.00000000
      1.00000000      1.00000000      1.00000000      1.00000000      1.00000000      1.00000000      1.00000000      1.00000000      1.00000000      1.00000000      1.00000000      1.00000000</v>
    <i name="NUPDOWN">     -1.00000000</i>
    <i type="logical" name="LSORBIT"> F  </i>
    <v name="SAXIS">      0.00000000      0.00000000      1.00000000</v>
    <i type="logical" name="LSPIRAL"> F  </i>
    <v name="QSPIRAL">      0.00000000      0.00000000      0.00000000</v>
    <i type="logical" name="LZEROZ"> F  </i>
   </separator>
   <separator name="electronic exchange-correlation" >
    <i type="logical" name="LASPH"> F  </i>
    <i type="logical" name="LMETAGGA"> F  </i>
   </separator>
   <separator name="electronic convergence" >
    <i type="int" name="NELM">   300</i>
    <i type="int" name="NELMDL">    -5</i>
    <i type="int" name="NELMIN">     5</i>
    <i name="ENINI">    500.00000000</i>
    <separator name="electronic convergence detail" >
     <i type="logical" name="LDIAG"> T  </i>
     <i type="logical" name="LSUBROT"> F  </i>
     <i name="WEIMIN">      0.00000000</i>
     <i name="EBREAK">      0.00000000</i>
     <i name="DEPER">      0.30000000</i>
     <i type="int" name="NRMM">     4</i>
     <i name="TIME">      0.40000000</i>
    </separator>
   </separator>
   <separator name="electronic mixer" >
    <i name="AMIX">      0.40000000</i>
    <i name="BMIX">      1.00000000</i>
    <i name="AMIN">      0.10000000</i>
    <i name="AMIX_MAG">      1.60000000</i>
    <i name="BMIX_MAG">      1.00000000</i>
    <separator name="electronic mixer details" >
     <i type="int" name="IMIX">     4</i>
     <i type="logical" name="MIXFIRST"> F  </i>
     <i type="int" name="MAXMIX">   -45</i>
     <i name="WC">    100.00000000</i>
     <i type="int" name="INIMIX">     1</i>
     <i type="int" name="MIXPRE">     1</i>
     <i type="int" name="MREMOVE">     5</i>
    </separator>
   </separator>
   <separator name="electronic dipolcorrection" >
    <i type="logical" name="LDIPOL"> T  </i>
    <i type="logical" name="LMONO"> F  </i>
    <i type="int" name="IDIPOL">     3</i>
    <i name="EPSILON">      1.00000000</i>
    <v name="DIPOL">   -100.00000000   -100.00000000   -100.00000000</v>
    <i name="EFIELD">      0.00000000</i>
   </separator>
  </separator>
  <separator name="grids" >
   <i type="int" name="NGX">   126</i>
   <i type="int" name="NGY">   126</i>
   <i type="int" name="NGZ">   240</i>
   <i type="int" name="NGXF">   252</i>
   <i type="int" name="NGYF">   252</i>
   <i type="int" name="NGZF">   480</i>
   <i type="logical" name="ADDGRID"> T  </i>
  </separator>
  <separator name="ionic" >
   <i type="int" name="NSW">     0</i>
   <i type="int" name="IBRION">    -1</i>
   <i type="int" name="MDALGO">     0</i>
   <i type="int" name="ISIF">     2</i>
   <i name="PSTRESS">      0.00000000</i>
   <i name="EDIFFG">      0.00000010</i>
   <i type="int" name="NFREE">     0</i>
   <i name="POTIM">      0.50000000</i>
   <i name="SMASS">     -3.00000000</i>
   <i name="SCALEE">      1.00000000</i>
  </separator>
  <separator name="ionic md" >
   <i name="TEBEG">      0.00010000</i>
   <i name="TEEND">      0.00010000</i>
   <i type="int" name="NBLOCK">     1</i>
   <i type="int" name="KBLOCK">     1</i>
   <i type="int" name="NPACO">   256</i>
   <i name="APACO">     16.00000000</i>
  </separator>
  <separator name="symmetry" >
   <i type="int" name="ISYM">     2</i>
   <i name="SYMPREC">      0.00001000</i>
  </separator>
  <separator name="dos" >
   <i type="int" name="LORBIT">     0</i>
   <v name="RWIGS">     -1.00000000     -1.00000000     -1.00000000</v>
   <i type="int" name="NEDOS">   301</i>
   <i name="EMIN">     10.00000000</i>
   <i name="EMAX">    -10.00000000</i>
   <i name="EFERMI">      0.00000000</i>
  </separator>
  <separator name="writing" >
   <i type="int" name="NWRITE">     2</i>
   <i type="logical" name="LWAVE"> F  </i>
   <i type="logical" name="LDOWNSAMPLE"> F  </i>
   <i type="logical" name="LCHARG"> F  </i>
   <i type="logical" name="LPARD"> F  </i>
   <i type="logical" name="LVTOT"> F  </i>
   <i type="logical" name="LVHAR"> F  </i>
   <i type="logical" name="LELF"> F  </i>
   <i type="logical" name="LOPTICS"> F  </i>
   <v name="STM">      0.00000000      0.00000000      0.00000000      0.00000000      0.00000000      0.00000000      0.00000000</v>
  </separator>
  <separator name="performance" >
   <i type="int" name="NPAR">     4</i>
   <i type="int" name="NSIM">     4</i>
   <i type="int" name="NBLK">    -1</i>
   <i type="logical" name="LPLANE"> T  </i>
   <i type="logical" name="LSCALAPACK"> F  </i>
   <i type="logical" name="LSCAAWARE"> F  </i>
   <i type="logical" name="LSCALU"> F  </i>
   <i type="logical" name="LASYNC"> F  </i>
   <i type="logical" name="LORBITALREAL"> F  </i>
  </separator>
  <separator name="miscellaneous" >
   <i type="int" name="IDIOT">     3</i>
   <i type="int" name="ISPECIAL">     0</i>
   <i type="logical" name="LMUSIC"> F  </i>
   <v name="POMASS">    114.82000000     74.92200000      1.00000000</v>
   <v name="DARWINR">      0.00000000      0.00000000      0.00000000</v>
   <v name="DARWINV">      1.00000000      1.00000000      1.00000000</v>
   <i type="logical" name="LCORR"> T  </i>
  </separator>
  <i type="logical" name="GGA_COMPAT"> T  </i>
  <i type="logical" name="LBERRY"> F  </i>
  <i type="int" name="ICORELEVEL">     0</i>
  <i type="logical" name="LDAU"> F  </i>
  <i type="int" name="I_CONSTRAINED_M">     0</i>
  <separator name="electronic exchange-correlation" >
   <i type="string" name="GGA">--</i>
   <i type="int" name="VOSKOWN">     0</i>
   <i type="logical" name="LHFCALC"> F  </i>
   <i type="string" name="PRECFOCK"></i>
   <i type="logical" name="LSYMGRAD"> F  </i>
   <i type="logical" name="LHFONE"> F  </i>
   <i type="logical" name="LRHFCALC"> F  </i>
   <i type="logical" name="LTHOMAS"> F  </i>
   <i type="logical" name="LMODELHF"> F  </i>
   <i name="ENCUT4O">     -1.00000000</i>
   <i type="int" name="EXXOEP">     0</i>
   <i type="int" name="FOURORBIT">     0</i>
   <i name="AEXX">      0.00000000</i>
   <i name="HFALPHA">      0.00000000</i>
   <i name="MCALPHA">      0.00000000</i>
   <i name="ALDAX">      1.00000000</i>
   <i name="AGGAX">      1.00000000</i>
   <i name="ALDAC">      1.00000000</i>
   <i name="AGGAC">      1.00000000</i>
   <i type="int" name="NKREDX">     1</i>
   <i type="int" name="NKREDY">     1</i>
   <i type="int" name="NKREDZ">     1</i>
   <i type="logical" name="SHIFTRED"> F  </i>
   <i type="logical" name="ODDONLY"> F  </i>
   <i type="logical" name="EVENONLY"> F  </i>
   <i type="int" name="LMAXFOCK">     0</i>
   <i type="int" name="NMAXFOCKAE">     0</i>
   <i type="logical" name="LFOCKAEDFT"> F  </i>
   <i name="HFSCREEN">      0.00000000</i>
   <i name="HFSCREENC">      0.00000000</i>
   <i type="int" name="NBANDSGWLOW">     0</i>
  </separator>
  <separator name="vdW DFT" >
   <i type="logical" name="LUSE_VDW"> F  </i>
   <i name="Zab_VDW">     -0.84910000</i>
   <i name="PARAM1">      0.12340000</i>
   <i name="PARAM2">      1.00000000</i>
   <i name="PARAM3">      0.00000000</i>
  </separator>
  <separator name="model GW" >
   <i type="int" name="MODEL_GW">     0</i>
   <i name="MODEL_EPS0">     27.43253559</i>
   <i name="MODEL_ALPHA">      1.00000000</i>
  </separator>
  <separator name="linear response parameters" >
   <i type="logical" name="LEPSILON"> F  </i>
   <i type="logical" name="LRPA"> F  </i>
   <i type="logical" name="LNABLA"> F  </i>
   <i type="logical" name="LVEL"> F  </i>
   <i type="int" name="KINTER">     0</i>
   <i name="CSHIFT">      0.10000000</i>
   <i name="OMEGAMAX">     -1.00000000</i>
   <i name="DEG_THRESHOLD">      0.00200000</i>
   <i name="RTIME">     -0.10000000</i>
   <i name="WPLASMAI">      0.00000000</i>
   <v name="DFIELD">      0.00000000      0.00000000      0.00000000</v>
   <v name="WPLASMA">      0.00000000      0.00000000      0.00000000      0.00000000      0.00000000      0.00000000      0.00000000      0.00000000      0.00000000</v>
  </separator>
  <separator name="orbital magnetization" >
   <i type="logical" name="NUCIND"> F  </i>
   <v name="MAGPOS">      0.00000000      0.00000000      0.00000000</v>
   <i type="logical" name="LNICSALL"> T  </i>
   <i type="logical" name="ORBITALMAG"> F  </i>
   <i type="logical" name="LMAGBLOCH"> F  </i>
   <i type="logical" name="LCHIMAG"> F  </i>
   <i type="logical" name="LGAUGE"> T  </i>
   <i type="int" name="MAGATOM">     0</i>
   <v name="MAGDIPOL">      0.00000000      0.00000000      0.00000000</v>
   <v name="AVECCONST">      0.00000000      0.00000000      0.00000000</v>
  </separator>
  <separator name="response functions" >
   <i type="logical" name="LADDER"> F  </i>
   <i type="logical" name="LRPAFORCE"> F  </i>
   <i type="logical" name="LFXC"> F  </i>
   <i type="logical" name="LHARTREE"> T  </i>
   <i type="int" name="IBSE">     0</i>
   <v type="int" name="KPOINT">    -1     0     0     0</v>
   <i type="logical" name="LTCTE"> F  </i>
   <i type="logical" name="LTETE"> F  </i>
   <i type="logical" name="LTRIPLET"> F  </i>
   <i type="logical" name="LFXCEPS"> F  </i>
   <i type="logical" name="LFXHEG"> F  </i>
   <i type="int" name="NATURALO">     2</i>
   <i type="logical" name="L2ORDER"> F  </i>
   <i type="logical" name="LMP2LT"> F  </i>
   <i type="logical" name="LUSEW"> F  </i>
   <i name="ENCUTGW">     -2.00000000</i>
   <i name="ENCUTGWSOFT">     -2.00000000</i>
   <i name="ENCUTLF">     -1.00000000</i>
   <i type="int" name="LMAXMP2">    -1</i>
   <i name="SCISSOR">      0.00000000</i>
   <i type="int" name="NOMEGA">     0</i>
   <i type="int" name="NOMEGAR">     0</i>
   <i type="int" name="NBANDSGW">    -1</i>
   <i type="int" name="NBANDSO">    -1</i>
   <i type="int" name="NBANDSV">    -1</i>
   <i type="int" name="NELM">   300</i>
   <i type="int" name="NELMHF">     1</i>
   <i type="int" name="DIM">     3</i>
   <i type="int" name="ANTIRES">     0</i>
   <i name="OMEGAMAX">    -30.00000000</i>
   <i name="OMEGAMIN">    -30.00000000</i>
   <i name="OMEGATL">   -200.00000000</i>
   <i type="int" name="OMEGAGRID">   140</i>
   <i name="CSHIFT">     -0.10000000</i>
   <i type="logical" name="SELFENERGY"> F  </i>
   <i type="logical" name="LSPECTRAL"> F  </i>
   <i type="logical" name="LSPECTRALGW"> F  </i>
   <i type="logical" name="LSINGLES"> F  </i>
   <i type="logical" name="LFERMIGW"> F  </i>
   <i type="logical" name="ODDONLYGW"> F  </i>
   <i type="logical" name="EVENONLYGW"> F  </i>
   <i type="int" name="NKREDLFX">     1</i>
   <i type="int" name="NKREDLFY">     1</i>
   <i type="int" name="NKREDLFZ">     1</i>
   <i type="int" name="MAXMEM">  2800</i>
   <i type="int" name="TELESCOPE">     0</i>
   <i type="int" name="TAUPAR">     1</i>
   <i type="int" name="OMEGAPAR">    -1</i>
   <i name="LAMBDA">      1.00000000</i>
  </separator>
  <separator name="External order field" >
   <i name="OFIELD_KAPPA">      0.00000000</i>
   <v name="OFIELD_K">      0.00000000      0.00000000      0.00000000</v>
   <i name="OFIELD_Q6_NEAR">      0.00000000</i>
   <i name="OFIELD_Q6_FAR">      0.00000000</i>
   <i name="OFIELD_A">      0.00000000</i>
  </separator>
 </parameters>
 <atominfo>
  <atoms>     172 </atoms>
  <types>       3 </types>
  <array name="atoms" >
   <dimension dim="1">ion</dimension>
   <field type="string">element</field>
   <field type="int">atomtype</field>
   <set>
    <rc><c>In</c><c>   1</c></rc>
    <rc><c>In</c><c>   1</c></rc>
    <rc><c>In</c><c>   1</c></rc>
    <rc><c>In</c><c>   1</c></rc>
    <rc><c>In</c><c>   1</c></rc>
    <rc><c>In</c><c>   1</c></rc>
    <rc><c>In</c><c>   1</c></rc>
    <rc><c>In</c><c>   1</c></rc>
    <rc><c>In</c><c>   1</c></rc>
    <rc><c>In</c><c>   1</c></rc>
    <rc><c>In</c><c>   1</c></rc>
    <rc><c>In</c><c>   1</c></rc>
    <rc><c>In</c><c>   1</c></rc>
    <rc><c>In</c><c>   1</c></rc>
    <rc><c>In</c><c>   1</c></rc>
    <rc><c>In</c><c>   1</c></rc>
    <rc><c>In</c><c>   1</c></rc>
    <rc><c>In</c><c>   1</c></rc>
    <rc><c>In</c><c>   1</c></rc>
    <rc><c>In</c><c>   1</c></rc>
    <rc><c>In</c><c>   1</c></rc>
    <rc><c>In</c><c>   1</c></rc>
    <rc><c>In</c><c>   1</c></rc>
    <rc><c>In</c><c>   1</c></rc>
    <rc><c>In</c><c>   1</c></rc>
    <rc><c>In</c><c>   1</c></rc>
    <rc><c>In</c><c>   1</c></rc>
    <rc><c>In</c><c>   1</c></rc>
    <rc><c>In</c><c>   1</c></rc>
    <rc><c>In</c><c>   1</c></rc>
    <rc><c>In</c><c>   1</c></rc>
    <rc><c>In</c><c>   1</c></rc>
    <rc><c>In</c><c>   1</c></rc>
    <rc><c>In</c><c>   1</c></rc>
    <rc><c>In</c><c>   1</c></rc>
    <rc><c>In</c><c>   1</c></rc>
    <rc><c>In</c><c>   1</c></rc>
    <rc><c>In</c><c>   1</c></rc>
    <rc><c>In</c><c>   1</c></rc>
    <rc><c>In</c><c>   1</c></rc>
    <rc><c>In</c><c>   1</c></rc>
    <rc><c>In</c><c>   1</c></rc>
    <rc><c>In</c><c>   1</c></rc>
    <rc><c>In</c><c>   1</c></rc>
    <rc><c>In</c><c>   1</c></rc>
    <rc><c>In</c><c>   1</c></rc>
    <rc><c>In</c><c>   1</c></rc>
    <rc><c>In</c><c>   1</c></rc>
    <rc><c>In</c><c>   1</c></rc>
    <rc><c>In</c><c>   1</c></rc>
    <rc><c>In</c><c>   1</c></rc>
    <rc><c>In</c><c>   1</c></rc>
    <rc><c>In</c><c>   1</c></rc>
    <rc><c>In</c><c>   1</c></rc>
    <rc><c>In</c><c>   1</c></rc>
    <rc><c>In</c><c>   1</c></rc>
    <rc><c>In</c><c>   1</c></rc>
    <rc><c>In</c><c>   1</c></rc>
    <rc><c>In</c><c>   1</c></rc>
    <rc><c>In</c><c>   1</c></rc>
    <rc><c>In</c><c>   1</c></rc>
    <rc><c>In</c><c>   1</c></rc>
    <rc><c>In</c><c>   1</c></rc>
    <rc><c>In</c><c>   1</c></rc>
    <rc><c>In</c><c>   1</c></rc>
    <rc><c>In</c><c>   1</c></rc>
    <rc><c>In</c><c>   1</c></rc>
    <rc><c>In</c><c>   1</c></rc>
    <rc><c>In</c><c>   1</c></rc>
    <rc><c>In</c><c>   1</c></rc>
    <rc><c>In</c><c>   1</c></rc>
    <rc><c>In</c><c>   1</c></rc>
    <rc><c>In</c><c>   1</c></rc>
    <rc><c>In</c><c>   1</c></rc>
    <rc><c>In</c><c>   1</c></rc>
    <rc><c>In</c><c>   1</c></rc>
    <rc><c>In</c><c>   1</c></rc>
    <rc><c>In</c><c>   1</c></rc>
    <rc><c>In</c><c>   1</c></rc>
    <rc><c>In</c><c>   1</c></rc>
    <rc><c>In</c><c>   1</c></rc>
    <rc><c>In</c><c>   1</c></rc>
    <rc><c>In</c><c>   1</c></rc>
    <rc><c>In</c><c>   1</c></rc>
    <rc><c>In</c><c>   1</c></rc>
    <rc><c>In</c><c>   1</c></rc>
    <rc><c>In</c><c>   1</c></rc>
    <rc><c>In</c><c>   1</c></rc>
    <rc><c>In</c><c>   1</c></rc>
    <rc><c>In</c><c>   1</c></rc>
    <rc><c>In</c><c>   1</c></rc>
    <rc><c>In</c><c>   1</c></rc>
    <rc><c>As</c><c>   2</c></rc>
    <rc><c>As</c><c>   2</c></rc>
    <rc><c>As</c><c>   2</c></rc>
    <rc><c>As</c><c>   2</c></rc>
    <rc><c>As</c><c>   2</c></rc>
    <rc><c>As</c><c>   2</c></rc>
    <rc><c>As</c><c>   2</c></rc>
    <rc><c>As</c><c>   2</c></rc>
    <rc><c>As</c><c>   2</c></rc>
    <rc><c>As</c><c>   2</c></rc>
    <rc><c>As</c><c>   2</c></rc>
    <rc><c>As</c><c>   2</c></rc>
    <rc><c>As</c><c>   2</c></rc>
    <rc><c>As</c><c>   2</c></rc>
    <rc><c>As</c><c>   2</c></rc>
    <rc><c>As</c><c>   2</c></rc>
    <rc><c>As</c><c>   2</c></rc>
    <rc><c>As</c><c>   2</c></rc>
    <rc><c>As</c><c>   2</c></rc>
    <rc><c>As</c><c>   2</c></rc>
    <rc><c>As</c><c>   2</c></rc>
    <rc><c>As</c><c>   2</c></rc>
    <rc><c>As</c><c>   2</c></rc>
    <rc><c>As</c><c>   2</c></rc>
    <rc><c>As</c><c>   2</c></rc>
    <rc><c>As</c><c>   2</c></rc>
    <rc><c>As</c><c>   2</c></rc>
    <rc><c>As</c><c>   2</c></rc>
    <rc><c>As</c><c>   2</c></rc>
    <rc><c>As</c><c>   2</c></rc>
    <rc><c>As</c><c>   2</c></rc>
    <rc><c>As</c><c>   2</c></rc>
    <rc><c>As</c><c>   2</c></rc>
    <rc><c>As</c><c>   2</c></rc>
    <rc><c>As</c><c>   2</c></rc>
    <rc><c>As</c><c>   2</c></rc>
    <rc><c>As</c><c>   2</c></rc>
    <rc><c>As</c><c>   2</c></rc>
    <rc><c>As</c><c>   2</c></rc>
    <rc><c>As</c><c>   2</c></rc>
    <rc><c>As</c><c>   2</c></rc>
    <rc><c>As</c><c>   2</c></rc>
    <rc><c>As</c><c>   2</c></rc>
    <rc><c>As</c><c>   2</c></rc>
    <rc><c>As</c><c>   2</c></rc>
    <rc><c>As</c><c>   2</c></rc>
    <rc><c>As</c><c>   2</c></rc>
    <rc><c>As</c><c>   2</c></rc>
    <rc><c>As</c><c>   2</c></rc>
    <rc><c>As</c><c>   2</c></rc>
    <rc><c>As</c><c>   2</c></rc>
    <rc><c>As</c><c>   2</c></rc>
    <rc><c>As</c><c>   2</c></rc>
    <rc><c>As</c><c>   2</c></rc>
    <rc><c>As</c><c>   2</c></rc>
    <rc><c>As</c><c>   2</c></rc>
    <rc><c>As</c><c>   2</c></rc>
    <rc><c>As</c><c>   2</c></rc>
    <rc><c>As</c><c>   2</c></rc>
    <rc><c>As</c><c>   2</c></rc>
    <rc><c>As</c><c>   2</c></rc>
    <rc><c>As</c><c>   2</c></rc>
    <rc><c>As</c><c>   2</c></rc>
    <rc><c>As</c><c>   2</c></rc>
    <rc><c>H </c><c>   3</c></rc>
    <rc><c>H </c><c>   3</c></rc>
    <rc><c>H </c><c>   3</c></rc>
    <rc><c>H </c><c>   3</c></rc>
    <rc><c>H </c><c>   3</c></rc>
    <rc><c>H </c><c>   3</c></rc>
    <rc><c>H </c><c>   3</c></rc>
    <rc><c>H </c><c>   3</c></rc>
    <rc><c>H </c><c>   3</c></rc>
    <rc><c>H </c><c>   3</c></rc>
    <rc><c>H </c><c>   3</c></rc>
    <rc><c>H </c><c>   3</c></rc>
    <rc><c>H </c><c>   3</c></rc>
    <rc><c>H </c><c>   3</c></rc>
    <rc><c>H </c><c>   3</c></rc>
    <rc><c>H </c><c>   3</c></rc>
   </set>
  </array>
  <array name="atomtypes" >
   <dimension dim="1">type</dimension>
   <field type="int">atomspertype</field>
   <field type="string">element</field>
   <field>mass</field>
   <field>valence</field>
   <field type="string">pseudopotential</field>
   <set>
    <rc><c>  92</c><c>In</c><c>    114.82000000</c><c>     13.00000000</c><c> PAW In_d 11Feb1998                     </c></rc>
    <rc><c>  64</c><c>As</c><c>     74.92200000</c><c>      5.00000000</c><c> PAW As 03Mar1998                       </c></rc>
    <rc><c>  16</c><c>H </c><c>      1.00000000</c><c>      1.25000000</c><c> PAW H1.25 14Feb2000                    </c></rc>
   </set>
  </array>
 </atominfo>
 <structure name="initialpos" >
  <crystal>
   <varray name="basis" >
    <v>      17.03433609       0.00000000       0.00000000 </v>
    <v>      -8.51716805      14.75216779       0.00000000 </v>
    <v>       0.00000000       0.00000000      31.29407310 </v>
   </varray>
   <i name="volume">   7863.99353597 </i>
   <varray name="rec_basis" >
    <v>       0.05870496       0.03389332       0.00000000 </v>
    <v>       0.00000000       0.06778665       0.00000000 </v>
    <v>       0.00000000       0.00000000       0.03195493 </v>
   </varray>
  </crystal>
  <varray name="positions" >
   <v>       0.04889542       0.39944771       0.99568253 </v>
   <v>       0.04889542       0.89944771       0.99568253 </v>
   <v>       0.54889542       0.39944771       0.99568253 </v>
   <v>       0.54889542       0.89944771       0.99568253 </v>
   <v>       0.35055229       0.39944771       0.99568253 </v>
   <v>       0.35055229       0.89944771       0.99568253 </v>
   <v>       0.85055229       0.39944771       0.99568253 </v>
   <v>       0.85055229       0.89944771       0.99568253 </v>
   <v>       0.35055229       0.20110457       0.99568253 </v>
   <v>       0.35055229       0.70110457       0.99568253 </v>
   <v>       0.85055229       0.20110457       0.99568253 </v>
   <v>       0.85055229       0.70110457       0.99568253 </v>
   <v>       0.02613653       0.05227307       0.99445054 </v>
   <v>       0.02661586       0.55323172       0.99490245 </v>
   <v>       0.52661586       0.05323172       0.99490245 </v>
   <v>       0.52661586       0.55323172       0.99490245 </v>
   <v>       0.19676828       0.22338414       0.99490245 </v>
   <v>       0.19676828       0.72338414       0.99490245 </v>
   <v>       0.69676828       0.22338414       0.99490245 </v>
   <v>       0.69676828       0.72338414       0.99490245 </v>
   <v>       0.25000000       0.00000000       0.99493075 </v>
   <v>       0.25000000       0.50000000       0.99493075 </v>
   <v>       0.75000000       0.00000000       0.99493075 </v>
   <v>       0.75000000       0.50000000       0.99493075 </v>
   <v>       0.02661586       0.22338414       0.99490245 </v>
   <v>       0.02661586       0.72338414       0.99490245 </v>
   <v>       0.52661586       0.22338414       0.99490245 </v>
   <v>       0.52661586       0.72338414       0.99490245 </v>
   <v>       0.16687125       0.33374251       0.11114905 </v>
   <v>       0.16687125       0.83374251       0.11114905 </v>
   <v>       0.66687125       0.33374251       0.11114905 </v>
   <v>       0.66687125       0.83374251       0.11114905 </v>
   <v>       0.41625749       0.08312875       0.11114905 </v>
   <v>       0.41625749       0.58312875       0.11114905 </v>
   <v>       0.91625749       0.08312875       0.11114905 </v>
   <v>       0.91625749       0.58312875       0.11114905 </v>
   <v>       0.41666666       0.33333334       0.10951073 </v>
   <v>       0.41666666       0.83333334       0.10951073 </v>
   <v>       0.91666666       0.33333334       0.10951073 </v>
   <v>       0.91666666       0.83333334       0.10951073 </v>
   <v>       0.16687125       0.08312875       0.11114905 </v>
   <v>       0.16687125       0.58312875       0.11114905 </v>
   <v>       0.66687125       0.08312875       0.11114905 </v>
   <v>       0.66687125       0.58312875       0.11114905 </v>
   <v>       0.33333334       0.16666667       0.22222222 </v>
   <v>       0.33333334       0.66666667       0.22222222 </v>
   <v>       0.83333334       0.16666667       0.22222222 </v>
   <v>       0.83333334       0.66666667       0.22222222 </v>
   <v>       0.08333331       0.41666666       0.22222222 </v>
   <v>       0.08333331       0.91666666       0.22222222 </v>
   <v>       0.58333331       0.41666666       0.22222222 </v>
   <v>       0.58333331       0.91666666       0.22222222 </v>
   <v>       0.08333331       0.16666669       0.22222222 </v>
   <v>       0.08333331       0.66666669       0.22222222 </v>
   <v>       0.58333331       0.16666669       0.22222222 </v>
   <v>       0.58333331       0.66666669       0.22222222 </v>
   <v>       0.33333334       0.41666666       0.22222222 </v>
   <v>       0.33333334       0.91666666       0.22222222 </v>
   <v>       0.83333334       0.41666666       0.22222222 </v>
   <v>       0.83333334       0.91666666       0.22222222 </v>
   <v>       0.00000000       0.00000000       0.33333334 </v>
   <v>       0.00000000       0.50000000       0.33333334 </v>
   <v>       0.50000000       0.00000000       0.33333334 </v>
   <v>       0.50000000       0.50000000       0.33333334 </v>
   <v>       0.25000000       0.25000000       0.33333334 </v>
   <v>       0.25000000       0.75000000       0.33333334 </v>
   <v>       0.75000000       0.25000000       0.33333334 </v>
   <v>       0.75000000       0.75000000       0.33333334 </v>
   <v>       0.25000000       0.00000000       0.33333334 </v>
   <v>       0.25000000       0.50000000       0.33333334 </v>
   <v>       0.75000000       0.00000000       0.33333334 </v>
   <v>       0.75000000       0.50000000       0.33333334 </v>
   <v>       0.00000000       0.25000000       0.33333334 </v>
   <v>       0.00000000       0.75000000       0.33333334 </v>
   <v>       0.50000000       0.25000000       0.33333334 </v>
   <v>       0.50000000       0.75000000       0.33333334 </v>
   <v>       0.16666667       0.33333334       0.44444445 </v>
   <v>       0.16666667       0.83333334       0.44444445 </v>
   <v>       0.66666667       0.33333334       0.44444445 </v>
   <v>       0.66666667       0.83333334       0.44444445 </v>
   <v>       0.41666666       0.08333334       0.44444445 </v>
   <v>       0.41666666       0.58333334       0.44444445 </v>
   <v>       0.91666666       0.08333334       0.44444445 </v>
   <v>       0.91666666       0.58333334       0.44444445 </v>
   <v>       0.41666666       0.33333334       0.44444445 </v>
   <v>       0.41666666       0.83333334       0.44444445 </v>
   <v>       0.91666666       0.33333334       0.44444445 </v>
   <v>       0.91666666       0.83333334       0.44444445 </v>
   <v>       0.16666667       0.08333334       0.44444445 </v>
   <v>       0.16666667       0.58333334       0.44444445 </v>
   <v>       0.66666667       0.08333334       0.44444445 </v>
   <v>       0.66666667       0.58333334       0.44444445 </v>
   <v>       0.00060404       0.00120809       0.07927097 </v>
   <v>       0.00060404       0.50120809       0.07927097 </v>
   <v>       0.50060404       0.00120809       0.07927097 </v>
   <v>       0.50060404       0.50120809       0.07927097 </v>
   <v>       0.00060404       0.24939596       0.07927100 </v>
   <v>       0.00060404       0.74939596       0.07927100 </v>
   <v>       0.50060404       0.24939596       0.07927100 </v>
   <v>       0.50060404       0.74939596       0.07927100 </v>
   <v>       0.25000000       0.00000000       0.08094485 </v>
   <v>       0.25000000       0.50000000       0.08094485 </v>
   <v>       0.75000000       0.00000000       0.08094485 </v>
   <v>       0.75000000       0.50000000       0.08094485 </v>
   <v>       0.24879191       0.24939596       0.07927100 </v>
   <v>       0.24879191       0.74939596       0.07927100 </v>
   <v>       0.74879191       0.24939596       0.07927100 </v>
   <v>       0.74879191       0.74939596       0.07927100 </v>
   <v>       0.16660331       0.33320661       0.19452973 </v>
   <v>       0.16660331       0.83320661       0.19452973 </v>
   <v>       0.66660331       0.33320661       0.19452973 </v>
   <v>       0.66660331       0.83320661       0.19452973 </v>
   <v>       0.16660331       0.08339670       0.19452973 </v>
   <v>       0.16660331       0.58339670       0.19452973 </v>
   <v>       0.66660331       0.08339670       0.19452973 </v>
   <v>       0.66660331       0.58339670       0.19452973 </v>
   <v>       0.41666666       0.33333334       0.19342860 </v>
   <v>       0.41666666       0.83333334       0.19342860 </v>
   <v>       0.91666666       0.33333334       0.19342860 </v>
   <v>       0.91666666       0.83333334       0.19342860 </v>
   <v>       0.41679339       0.08339670       0.19452973 </v>
   <v>       0.41679339       0.58339670       0.19452973 </v>
   <v>       0.91679339       0.08339670       0.19452973 </v>
   <v>       0.91679339       0.58339670       0.19452973 </v>
   <v>       0.33333334       0.16666667       0.30555555 </v>
   <v>       0.33333334       0.66666667       0.30555555 </v>
   <v>       0.83333334       0.16666667       0.30555555 </v>
   <v>       0.83333334       0.66666667       0.30555555 </v>
   <v>       0.33333334       0.41666666       0.30555555 </v>
   <v>       0.33333334       0.91666666       0.30555555 </v>
   <v>       0.83333334       0.41666666       0.30555555 </v>
   <v>       0.83333334       0.91666666       0.30555555 </v>
   <v>       0.08333331       0.16666669       0.30555555 </v>
   <v>       0.08333331       0.66666669       0.30555555 </v>
   <v>       0.58333331       0.16666669       0.30555555 </v>
   <v>       0.58333331       0.66666669       0.30555555 </v>
   <v>       0.08333331       0.41666666       0.30555555 </v>
   <v>       0.08333331       0.91666666       0.30555555 </v>
   <v>       0.58333331       0.41666666       0.30555555 </v>
   <v>       0.58333331       0.91666666       0.30555555 </v>
   <v>       0.00000000       0.00000000       0.41666666 </v>
   <v>       0.00000000       0.50000000       0.41666666 </v>
   <v>       0.50000000       0.00000000       0.41666666 </v>
   <v>       0.50000000       0.50000000       0.41666666 </v>
   <v>       0.00000000       0.25000000       0.41666666 </v>
   <v>       0.00000000       0.75000000       0.41666666 </v>
   <v>       0.50000000       0.25000000       0.41666666 </v>
   <v>       0.50000000       0.75000000       0.41666666 </v>
   <v>       0.25000000       0.00000000       0.41666666 </v>
   <v>       0.25000000       0.50000000       0.41666666 </v>
   <v>       0.75000000       0.00000000       0.41666666 </v>
   <v>       0.75000000       0.50000000       0.41666666 </v>
   <v>       0.25000000       0.25000000       0.41666666 </v>
   <v>       0.25000000       0.75000000       0.41666666 </v>
   <v>       0.75000000       0.25000000       0.41666666 </v>
   <v>       0.75000000       0.75000000       0.41666666 </v>
   <v>       0.16666667       0.33333334       0.50007080 </v>
   <v>       0.16666667       0.83333334       0.50007080 </v>
   <v>       0.66666667       0.33333334       0.50007080 </v>
   <v>       0.66666667       0.83333334       0.50007080 </v>
   <v>       0.16666667       0.08333334       0.50007080 </v>
   <v>       0.16666667       0.58333334       0.50007080 </v>
   <v>       0.66666667       0.08333334       0.50007080 </v>
   <v>       0.66666667       0.58333334       0.50007080 </v>
   <v>       0.41666666       0.33333334       0.50007080 </v>
   <v>       0.41666666       0.83333334       0.50007080 </v>
   <v>       0.91666666       0.33333334       0.50007080 </v>
   <v>       0.91666666       0.83333334       0.50007080 </v>
   <v>       0.41666666       0.08333334       0.50007080 </v>
   <v>       0.41666666       0.58333334       0.50007080 </v>
   <v>       0.91666666       0.08333334       0.50007080 </v>
   <v>       0.91666666       0.58333334       0.50007080 </v>
  </varray>
 </structure>
 <calculation>
  <scstep>
   <time name="dav">  381.41  381.59</time>
   <time name="total">  383.24  383.43</time>
   <dipole>
    <v name="dipole">      0.00000000       0.00000000      -0.00133638 </v>
    <i name="Tr[quadrupol]"> -74893.78297764 </i>
    <i name="Echarged">      0.00000000 </i>
    <i name="Edipol_quadrupol">      0.00000000 </i>
    <i name="Eion">      0.00000000 </i>
   </dipole>
   <energy>
    <i name="alphaZ">   1768.57129285 </i>
    <i name="ewald"> 318675.48461875 </i>
    <i name="hartreedc">-467252.55616431 </i>
    <i name="XCdc">   3216.67768963 </i>
    <i name="pawpsdc"> 116446.47017590 </i>
    <i name="pawaedc">-114544.52040592 </i>
    <i name="eentropy">     -0.03820593 </i>
    <i name="bandstr">    624.66297724 </i>
    <i name="atom"> 156698.92270065 </i>
    <i name="e_fr_energy">  15633.67467887 </i>
    <i name="e_wo_entrp">  15633.71288480 </i>
    <i name="e_0_energy">  15633.69378183 </i>
   </energy>
  </scstep>
  <scstep>
   <time name="dav">  409.06  409.35</time>
   <time name="total">  409.07  409.37</time>
   <dipole>
    <v name="dipole">      0.00000000       0.00000000      -0.00133638 </v>
    <i name="Tr[quadrupol]"> -74893.78297764 </i>
    <i name="Echarged">      0.00000000 </i>
    <i name="Edipol_quadrupol">      0.00000000 </i>
    <i name="Eion">      0.00000000 </i>
   </dipole>
   <energy>
    <i name="e_fr_energy">   1767.32475635 </i>
    <i name="e_wo_entrp">   1767.36218249 </i>
    <i name="e_0_energy">   1767.34346942 </i>
   </energy>
  </scstep>
  <scstep>
   <time name="dav">  417.17  418.10</time>
   <time name="total">  417.18  418.11</time>
   <dipole>
    <v name="dipole">      0.00000000       0.00000000      -0.00133638 </v>
    <i name="Tr[quadrupol]"> -74893.78297764 </i>
    <i name="Echarged">      0.00000000 </i>
    <i name="Edipol_quadrupol">      0.00000000 </i>
    <i name="Eion">      0.00000000 </i>
   </dipole>
   <energy>
    <i name="e_fr_energy">   -526.20899402 </i>
    <i name="e_wo_entrp">   -526.20117576 </i>
    <i name="e_0_energy">   -526.20508489 </i>
   </energy>
  </scstep>
  <scstep>
   <time name="dav">  419.76  420.04</time>
   <time name="total">  419.77  420.05</time>
   <dipole>
    <v name="dipole">      0.00000000       0.00000000      -0.00133638 </v>
    <i name="Tr[quadrupol]"> -74893.78297764 </i>
    <i name="Echarged">      0.00000000 </i>
    <i name="Edipol_quadrupol">      0.00000000 </i>
    <i name="Eion">      0.00000000 </i>
   </dipole>
   <energy>
    <i name="e_fr_energy">   -721.66147753 </i>
    <i name="e_wo_entrp">   -721.64397550 </i>
    <i name="e_0_energy">   -721.65272652 </i>
   </energy>
  </scstep>
  <scstep>
   <time name="dav">  443.06  443.42</time>
   <time name="total">  450.54  450.91</time>
   <dipole>
    <v name="dipole">      0.00000000       0.00000000      -0.00133638 </v>
    <i name="Tr[quadrupol]"> -74893.78297764 </i>
    <i name="Echarged">      0.00000000 </i>
    <i name="Edipol_quadrupol">      0.00000000 </i>
    <i name="Eion">      0.00000000 </i>
   </dipole>
   <energy>
    <i name="e_fr_energy">   -730.86518912 </i>
    <i name="e_wo_entrp">   -730.84738272 </i>
    <i name="e_0_energy">   -730.85628592 </i>
   </energy>
  </scstep>
  <scstep>
   <time name="dav">  514.26  514.56</time>
   <time name="total">  521.76  522.07</time>
   <dipole>
    <v name="dipole">      0.00000000       0.00000000       1.73627624 </v>
    <i name="Tr[quadrupol]"> -74910.02333505 </i>
    <i name="Echarged">      0.00000000 </i>
    <i name="Edipol_quadrupol">      0.00000000 </i>
    <i name="Eion">      0.00000000 </i>
   </dipole>
   <energy>
    <i name="e_fr_energy">   -706.93588619 </i>
    <i name="e_wo_entrp">   -706.92667156 </i>
    <i name="e_0_energy">   -706.93127888 </i>
   </energy>
  </scstep>
  <scstep>
   <time name="dav">  480.68  480.84</time>
   <time name="total">  488.66  488.82</time>
   <dipole>
    <v name="dipole">      0.00000000       0.00000000       0.18990665 </v>
    <i name="Tr[quadrupol]"> -74913.38294743 </i>
    <i name="Echarged">      0.00000000 </i>
    <i name="Edipol_quadrupol">      0.00000000 </i>
    <i name="Eion">      0.00000000 </i>
   </dipole>
   <energy>
    <i name="e_fr_energy">   -703.74975541 </i>
    <i name="e_wo_entrp">   -703.73837885 </i>
    <i name="e_0_energy">   -703.74406713 </i>
   </energy>
  </scstep>
  <scstep>
   <time name="dav">  477.15  477.30</time>
   <time name="total">  484.57  484.73</time>
   <dipole>
    <v name="dipole">      0.00000000       0.00000000       1.34912889 </v>
    <i name="Tr[quadrupol]"> -74918.47327221 </i>
    <i name="Echarged">      0.00000000 </i>
    <i name="Edipol_quadrupol">      0.00000000 </i>
    <i name="Eion">      0.00000000 </i>
   </dipole>
   <energy>
    <i name="e_fr_energy">   -703.81953963 </i>
    <i name="e_wo_entrp">   -703.81169057 </i>
    <i name="e_0_energy">   -703.81561510 </i>
   </energy>
  </scstep>
  <scstep>
   <time name="dav">  466.91  467.11</time>
   <time name="total">  474.43  474.63</time>
   <dipole>
    <v name="dipole">      0.00000000       0.00000000       1.12642766 </v>
    <i name="Tr[quadrupol]"> -74924.09327591 </i>
    <i name="Echarged">      0.00000000 </i>
    <i name="Edipol_quadrupol">      0.00000000 </i>
    <i name="Eion">      0.00000000 </i>
   </dipole>
   <energy>
    <i name="e_fr_energy">   -703.67045103 </i>
    <i name="e_wo_entrp">   -703.66328454 </i>
    <i name="e_0_energy">   -703.66686778 </i>
   </energy>
  </scstep>
  <scstep>
   <time name="dav">  487.92  488.11</time>
   <time name="total">  497.51  497.70</time>
   <dipole>
    <v name="dipole">      0.00000000       0.00000000       1.13998480 </v>
    <i name="Tr[quadrupol]"> -74928.24292436 </i>
    <i name="Echarged">      0.00000000 </i>
    <i name="Edipol_quadrupol">      0.00000000 </i>
    <i name="Eion">      0.00000000 </i>
   </dipole>
   <energy>
    <i name="e_fr_energy">   -703.67346865 </i>
    <i name="e_wo_entrp">   -703.66636891 </i>
    <i name="e_0_energy">   -703.66991878 </i>
   </energy>
  </scstep>
  <scstep>
   <time name="dav">  465.06  465.43</time>
   <time name="total">  472.47  472.84</time>
   <dipole>
    <v name="dipole">      0.00000000       0.00000000       1.21132178 </v>
    <i name="Tr[quadrupol]"> -74929.65641146 </i>
    <i name="Echarged">      0.00000000 </i>
    <i name="Edipol_quadrupol">      0.00000000 </i>
    <i name="Eion">      0.00000000 </i>
   </dipole>
   <energy>
    <i name="e_fr_energy">   -703.68140507 </i>
    <i name="e_wo_entrp">   -703.67428641 </i>
    <i name="e_0_energy">   -703.67784574 </i>
   </energy>
  </scstep>
  <scstep>
   <time name="dav">  519.90  521.54</time>
   <time name="total">  527.52  529.16</time>
   <dipole>
    <v name="dipole">      0.00000000       0.00000000       1.23765307 </v>
    <i name="Tr[quadrupol]"> -74931.79432135 </i>
    <i name="Echarged">      0.00000000 </i>
    <i name="Edipol_quadrupol">      0.00000000 </i>
    <i name="Eion">      0.00000000 </i>
   </dipole>
   <energy>
    <i name="e_fr_energy">   -703.68582521 </i>
    <i name="e_wo_entrp">   -703.67866250 </i>
    <i name="e_0_energy">   -703.68224386 </i>
   </energy>
  </scstep>
  <scstep>
   <time name="dav">  486.92  487.06</time>
   <time name="total">  494.35  494.49</time>
   <dipole>
    <v name="dipole">      0.00000000       0.00000000       1.24297857 </v>
    <i name="Tr[quadrupol]"> -74934.28180938 </i>
    <i name="Echarged">      0.00000000 </i>
    <i name="Edipol_quadrupol">      0.00000000 </i>
    <i name="Eion">      0.00000000 </i>
   </dipole>
   <energy>
    <i name="e_fr_energy">   -703.69086990 </i>
    <i name="e_wo_entrp">   -703.68368106 </i>
    <i name="e_0_energy">   -703.68727548 </i>
   </energy>
  </scstep>
  <scstep>
   <time name="dav">  461.78  461.98</time>
   <time name="total">  469.21  469.41</time>
   <dipole>
    <v name="dipole">      0.00000000       0.00000000       1.26432745 </v>
    <i name="Tr[quadrupol]"> -74935.94873009 </i>
    <i name="Echarged">      0.00000000 </i>
    <i name="Edipol_quadrupol">      0.00000000 </i>
    <i name="Eion">      0.00000000 </i>
   </dipole>
   <energy>
    <i name="e_fr_energy">   -703.69589711 </i>
    <i name="e_wo_entrp">   -703.68871442 </i>
    <i name="e_0_energy">   -703.69230576 </i>
   </energy>
  </scstep>
  <scstep>
   <time name="dav">  456.09  456.35</time>
   <time name="total">  463.52  463.78</time>
   <dipole>
    <v name="dipole">      0.00000000       0.00000000       1.28725797 </v>
    <i name="Tr[quadrupol]"> -74937.94794572 </i>
    <i name="Echarged">      0.00000000 </i>
    <i name="Edipol_quadrupol">      0.00000000 </i>
    <i name="Eion">      0.00000000 </i>
   </dipole>
   <energy>
    <i name="e_fr_energy">   -703.70184706 </i>
    <i name="e_wo_entrp">   -703.69465810 </i>
    <i name="e_0_energy">   -703.69825258 </i>
   </energy>
  </scstep>
  <scstep>
   <time name="dav">  444.06  444.58</time>
   <time name="total">  453.25  453.77</time>
   <dipole>
    <v name="dipole">      0.00000000       0.00000000       1.30179086 </v>
    <i name="Tr[quadrupol]"> -74938.75521248 </i>
    <i name="Echarged">      0.00000000 </i>
    <i name="Edipol_quadrupol">      0.00000000 </i>
    <i name="Eion">      0.00000000 </i>
   </dipole>
   <energy>
    <i name="e_fr_energy">   -703.70398230 </i>
    <i name="e_wo_entrp">   -703.69679323 </i>
    <i name="e_0_energy">   -703.70038777 </i>
   </energy>
  </scstep>
  <scstep>
   <time name="dav">  435.14  435.31</time>
   <time name="total">  442.57  442.75</time>
   <dipole>
    <v name="dipole">      0.00000000       0.00000000       1.31795273 </v>
    <i name="Tr[quadrupol]"> -74939.88335924 </i>
    <i name="Echarged">      0.00000000 </i>
    <i name="Edipol_quadrupol">      0.00000000 </i>
    <i name="Eion">      0.00000000 </i>
   </dipole>
   <energy>
    <i name="e_fr_energy">   -703.70503055 </i>
    <i name="e_wo_entrp">   -703.69784204 </i>
    <i name="e_0_energy">   -703.70143630 </i>
   </energy>
  </scstep>
  <scstep>
   <time name="dav">  461.55  461.94</time>
   <time name="total">  469.04  469.43</time>
   <dipole>
    <v name="dipole">      0.00000000       0.00000000       1.33224760 </v>
    <i name="Tr[quadrupol]"> -74939.93586804 </i>
    <i name="Echarged">      0.00000000 </i>
    <i name="Edipol_quadrupol">      0.00000000 </i>
    <i name="Eion">      0.00000000 </i>
   </dipole>
   <energy>
    <i name="e_fr_energy">   -703.70556956 </i>
    <i name="e_wo_entrp">   -703.69838069 </i>
    <i name="e_0_energy">   -703.70197513 </i>
   </energy>
  </scstep>
  <scstep>
   <time name="dav">  482.49  482.75</time>
   <time name="total">  489.92  490.18</time>
   <dipole>
    <v name="dipole">      0.00000000       0.00000000       1.34566452 </v>
    <i name="Tr[quadrupol]"> -74940.14240857 </i>
    <i name="Echarged">      0.00000000 </i>
    <i name="Edipol_quadrupol">      0.00000000 </i>
    <i name="Eion">      0.00000000 </i>
   </dipole>
   <energy>
    <i name="e_fr_energy">   -703.70608499 </i>
    <i name="e_wo_entrp">   -703.69889567 </i>
    <i name="e_0_energy">   -703.70249033 </i>
   </energy>
  </scstep>
  <scstep>
   <time name="dav">  453.10  453.47</time>
   <time name="total">  460.53  460.90</time>
   <dipole>
    <v name="dipole">      0.00000000       0.00000000       1.36385990 </v>
    <i name="Tr[quadrupol]"> -74940.19851754 </i>
    <i name="Echarged">      0.00000000 </i>
    <i name="Edipol_quadrupol">      0.00000000 </i>
    <i name="Eion">      0.00000000 </i>
   </dipole>
   <energy>
    <i name="e_fr_energy">   -703.70654585 </i>
    <i name="e_wo_entrp">   -703.69935492 </i>
    <i name="e_0_energy">   -703.70295038 </i>
   </energy>
  </scstep>
  <scstep>
   <time name="dav">  426.07  426.30</time>
   <time name="total">  433.52  433.76</time>
   <dipole>
    <v name="dipole">      0.00000000       0.00000000       1.37338818 </v>
    <i name="Tr[quadrupol]"> -74940.29274861 </i>
    <i name="Echarged">      0.00000000 </i>
    <i name="Edipol_quadrupol">      0.00000000 </i>
    <i name="Eion">      0.00000000 </i>
   </dipole>
   <energy>
    <i name="e_fr_energy">   -703.70670031 </i>
    <i name="e_wo_entrp">   -703.69950790 </i>
    <i name="e_0_energy">   -703.70310411 </i>
   </energy>
  </scstep>
  <scstep>
   <time name="dav">  447.08  447.35</time>
   <time name="total">  454.49  454.76</time>
   <dipole>
    <v name="dipole">      0.00000000       0.00000000       1.38319761 </v>
    <i name="Tr[quadrupol]"> -74940.40950925 </i>
    <i name="Echarged">      0.00000000 </i>
    <i name="Edipol_quadrupol">      0.00000000 </i>
    <i name="Eion">      0.00000000 </i>
   </dipole>
   <energy>
    <i name="e_fr_energy">   -703.70688477 </i>
    <i name="e_wo_entrp">   -703.69969103 </i>
    <i name="e_0_energy">   -703.70328790 </i>
   </energy>
  </scstep>
  <scstep>
   <time name="dav">  430.40  430.71</time>
   <time name="total">  437.84  438.16</time>
   <dipole>
    <v name="dipole">      0.00000000       0.00000000       1.38696184 </v>
    <i name="Tr[quadrupol]"> -74940.27167709 </i>
    <i name="Echarged">      0.00000000 </i>
    <i name="Edipol_quadrupol">      0.00000000 </i>
    <i name="Eion">      0.00000000 </i>
   </dipole>
   <energy>
    <i name="e_fr_energy">   -703.70698082 </i>
    <i name="e_wo_entrp">   -703.69978731 </i>
    <i name="e_0_energy">   -703.70338406 </i>
   </energy>
  </scstep>
  <scstep>
   <time name="dav">  483.54  484.05</time>
   <time name="total">  490.94  491.45</time>
   <dipole>
    <v name="dipole">      0.00000000       0.00000000       1.39365665 </v>
    <i name="Tr[quadrupol]"> -74942.65475568 </i>
    <i name="Echarged">      0.00000000 </i>
    <i name="Edipol_quadrupol">      0.00000000 </i>
    <i name="Eion">      0.00000000 </i>
   </dipole>
   <energy>
    <i name="e_fr_energy">   -703.70702067 </i>
    <i name="e_wo_entrp">   -703.69982752 </i>
    <i name="e_0_energy">   -703.70342410 </i>
   </energy>
  </scstep>
  <scstep>
   <time name="dav">  388.63  388.86</time>
   <time name="total">  398.49  398.74</time>
   <dipole>
    <v name="dipole">      0.00000000       0.00000000       1.39269555 </v>
    <i name="Tr[quadrupol]"> -74943.57387640 </i>
    <i name="Echarged">      0.00000000 </i>
    <i name="Edipol_quadrupol">      0.00000000 </i>
    <i name="Eion">      0.00000000 </i>
   </dipole>
   <energy>
    <i name="e_fr_energy">   -703.70703086 </i>
    <i name="e_wo_entrp">   -703.69983778 </i>
    <i name="e_0_energy">   -703.70343432 </i>
   </energy>
  </scstep>
  <scstep>
   <time name="dav">  411.60  412.13</time>
   <time name="total">  420.62  421.17</time>
   <dipole>
    <v name="dipole">      0.00000000       0.00000000       1.38936503 </v>
    <i name="Tr[quadrupol]"> -74943.58141725 </i>
    <i name="Echarged">      0.00000000 </i>
    <i name="Edipol_quadrupol">      0.00000000 </i>
    <i name="Eion">      0.00000000 </i>
   </dipole>
   <energy>
    <i name="e_fr_energy">   -703.70704089 </i>
    <i name="e_wo_entrp">   -703.69984743 </i>
    <i name="e_0_energy">   -703.70344416 </i>
   </energy>
  </scstep>
  <scstep>
   <time name="dav">  438.55  438.81</time>
   <time name="total">  445.94  446.21</time>
   <dipole>
    <v name="dipole">      0.00000000       0.00000000       1.38932747 </v>
    <i name="Tr[quadrupol]"> -74943.58054915 </i>
    <i name="Echarged">      0.00000000 </i>
    <i name="Edipol_quadrupol">      0.00000000 </i>
    <i name="Eion">      0.00000000 </i>
   </dipole>
   <energy>
    <i name="e_fr_energy">   -703.70704242 </i>
    <i name="e_wo_entrp">   -703.69984863 </i>
    <i name="e_0_energy">   -703.70344552 </i>
   </energy>
  </scstep>
  <scstep>
   <time name="dav">  482.33  482.65</time>
   <time name="total">  490.89  491.22</time>
   <dipole>
    <v name="dipole">      0.00000000       0.00000000       1.38930360 </v>
    <i name="Tr[quadrupol]"> -74943.58081747 </i>
    <i name="Echarged">      0.00000000 </i>
    <i name="Edipol_quadrupol">      0.00000000 </i>
    <i name="Eion">      0.00000000 </i>
   </dipole>
   <energy>
    <i name="e_fr_energy">   -703.70704292 </i>
    <i name="e_wo_entrp">   -703.69984903 </i>
    <i name="e_0_energy">   -703.70344597 </i>
   </energy>
  </scstep>
  <scstep>
   <time name="dav">  365.52  365.74</time>
   <time name="total">  372.92  373.15</time>
   <dipole>
    <v name="dipole">      0.00000000       0.00000000       1.38964239 </v>
    <i name="Tr[quadrupol]"> -74943.76126567 </i>
    <i name="Echarged">      0.00000000 </i>
    <i name="Edipol_quadrupol">      0.00000000 </i>
    <i name="Eion">      0.00000000 </i>
   </dipole>
   <energy>
    <i name="e_fr_energy">   -703.70704255 </i>
    <i name="e_wo_entrp">   -703.69984871 </i>
    <i name="e_0_energy">   -703.70344563 </i>
   </energy>
  </scstep>
  <scstep>
   <time name="dav">  400.76  401.01</time>
   <time name="total">  408.14  408.39</time>
   <dipole>
    <v name="dipole">      0.00000000       0.00000000       1.38961126 </v>
    <i name="Tr[quadrupol]"> -74943.94360336 </i>
    <i name="Echarged">      0.00000000 </i>
    <i name="Edipol_quadrupol">      0.00000000 </i>
    <i name="Eion">      0.00000000 </i>
   </dipole>
   <energy>
    <i name="e_fr_energy">   -703.70704339 </i>
    <i name="e_wo_entrp">   -703.69984956 </i>
    <i name="e_0_energy">   -703.70344647 </i>
   </energy>
  </scstep>
  <scstep>
   <time name="dav">  405.00  405.55</time>
   <time name="total">  412.42  412.97</time>
   <dipole>
    <v name="dipole">      0.00000000       0.00000000       1.38932504 </v>
    <i name="Tr[quadrupol]"> -74943.94476631 </i>
    <i name="Echarged">      0.00000000 </i>
    <i name="Edipol_quadrupol">      0.00000000 </i>
    <i name="Eion">      0.00000000 </i>
   </dipole>
   <energy>
    <i name="e_fr_energy">   -703.70704405 </i>
    <i name="e_wo_entrp">   -703.69985015 </i>
    <i name="e_0_energy">   -703.70344710 </i>
   </energy>
  </scstep>
  <scstep>
   <time name="dav">  291.57  291.72</time>
   <time name="total">  292.21  292.36</time>
   <dipole>
    <v name="dipole">      0.00000000       0.00000000       1.38932625 </v>
    <i name="Tr[quadrupol]"> -74943.94477370 </i>
    <i name="Echarged">      0.00000000 </i>
    <i name="Edipol_quadrupol">      0.00000000 </i>
    <i name="Eion">      0.00000000 </i>
   </dipole>
   <energy>
    <i name="alphaZ">   1795.17519305 </i>
    <i name="ewald"> 318675.48461875 </i>
    <i name="hartreedc">-467512.52657544 </i>
    <i name="XCdc">   3224.68707751 </i>
    <i name="pawpsdc"> 119805.02812585 </i>
    <i name="pawaedc">-118011.23094015 </i>
    <i name="eentropy">     -0.00719389 </i>
    <i name="bandstr"> -15379.24005039 </i>
    <i name="atom"> 156698.92270065 </i>
    <i name="e_fr_energy">   -703.70704405 </i>
    <i name="e_wo_entrp">   -703.69985015 </i>
    <i name="e_0_energy">   -703.70344710 </i>
   </energy>
  </scstep>
  <structure>
   <crystal>
    <varray name="basis" >
     <v>      17.03433609       0.00000000       0.00000000 </v>
     <v>      -8.51716805      14.75216779       0.00000000 </v>
     <v>       0.00000000       0.00000000      31.29407310 </v>
    </varray>
    <i name="volume">   7863.99353597 </i>
    <varray name="rec_basis" >
     <v>       0.05870496       0.03389332       0.00000000 </v>
     <v>       0.00000000       0.06778665       0.00000000 </v>
     <v>       0.00000000       0.00000000       0.03195493 </v>
    </varray>
   </crystal>
   <varray name="positions" >
    <v>       0.04889542       0.39944771       0.99568253 </v>
    <v>       0.04889542       0.89944771       0.99568253 </v>
    <v>       0.54889542       0.39944771       0.99568253 </v>
    <v>       0.54889542       0.89944771       0.99568253 </v>
    <v>       0.35055229       0.39944771       0.99568253 </v>
    <v>       0.35055229       0.89944771       0.99568253 </v>
    <v>       0.85055229       0.39944771       0.99568253 </v>
    <v>       0.85055229       0.89944771       0.99568253 </v>
    <v>       0.35055229       0.20110457       0.99568253 </v>
    <v>       0.35055229       0.70110457       0.99568253 </v>
    <v>       0.85055229       0.20110457       0.99568253 </v>
    <v>       0.85055229       0.70110457       0.99568253 </v>
    <v>       0.02613653       0.05227307       0.99445054 </v>
    <v>       0.02661586       0.55323172       0.99490245 </v>
    <v>       0.52661586       0.05323172       0.99490245 </v>
    <v>       0.52661586       0.55323172       0.99490245 </v>
    <v>       0.19676828       0.22338414       0.99490245 </v>
    <v>       0.19676828       0.72338414       0.99490245 </v>
    <v>       0.69676828       0.22338414       0.99490245 </v>
    <v>       0.69676828       0.72338414       0.99490245 </v>
    <v>       0.25000000       0.00000000       0.99493075 </v>
    <v>       0.25000000       0.50000000       0.99493075 </v>
    <v>       0.75000000       0.00000000       0.99493075 </v>
    <v>       0.75000000       0.50000000       0.99493075 </v>
    <v>       0.02661586       0.22338414       0.99490245 </v>
    <v>       0.02661586       0.72338414       0.99490245 </v>
    <v>       0.52661586       0.22338414       0.99490245 </v>
    <v>       0.52661586       0.72338414       0.99490245 </v>
    <v>       0.16687125       0.33374251       0.11114905 </v>
    <v>       0.16687125       0.83374251       0.11114905 </v>
    <v>       0.66687125       0.33374251       0.11114905 </v>
    <v>       0.66687125       0.83374251       0.11114905 </v>
    <v>       0.41625749       0.08312875       0.11114905 </v>
    <v>       0.41625749       0.58312875       0.11114905 </v>
    <v>       0.91625749       0.08312875       0.11114905 </v>
    <v>       0.91625749       0.58312875       0.11114905 </v>
    <v>       0.41666666       0.33333334       0.10951073 </v>
    <v>       0.41666666       0.83333334       0.10951073 </v>
    <v>       0.91666666       0.33333334       0.10951073 </v>
    <v>       0.91666666       0.83333334       0.10951073 </v>
    <v>       0.16687125       0.08312875       0.11114905 </v>
    <v>       0.16687125       0.58312875       0.11114905 </v>
    <v>       0.66687125       0.08312875       0.11114905 </v>
    <v>       0.66687125       0.58312875       0.11114905 </v>
    <v>       0.33333334       0.16666667       0.22222222 </v>
    <v>       0.33333334       0.66666667       0.22222222 </v>
    <v>       0.83333334       0.16666667       0.22222222 </v>
    <v>       0.83333334       0.66666667       0.22222222 </v>
    <v>       0.08333331       0.41666666       0.22222222 </v>
    <v>       0.08333331       0.91666666       0.22222222 </v>
    <v>       0.58333331       0.41666666       0.22222222 </v>
    <v>       0.58333331       0.91666666       0.22222222 </v>
    <v>       0.08333331       0.16666669       0.22222222 </v>
    <v>       0.08333331       0.66666669       0.22222222 </v>
    <v>       0.58333331       0.16666669       0.22222222 </v>
    <v>       0.58333331       0.66666669       0.22222222 </v>
    <v>       0.33333334       0.41666666       0.22222222 </v>
    <v>       0.33333334       0.91666666       0.22222222 </v>
    <v>       0.83333334       0.41666666       0.22222222 </v>
    <v>       0.83333334       0.91666666       0.22222222 </v>
    <v>       0.00000000       0.00000000       0.33333334 </v>
    <v>       0.00000000       0.50000000       0.33333334 </v>
    <v>       0.50000000       0.00000000       0.33333334 </v>
    <v>       0.50000000       0.50000000       0.33333334 </v>
    <v>       0.25000000       0.25000000       0.33333334 </v>
    <v>       0.25000000       0.75000000       0.33333334 </v>
    <v>       0.75000000       0.25000000       0.33333334 </v>
    <v>       0.75000000       0.75000000       0.33333334 </v>
    <v>       0.25000000       0.00000000       0.33333334 </v>
    <v>       0.25000000       0.50000000       0.33333334 </v>
    <v>       0.75000000       0.00000000       0.33333334 </v>
    <v>       0.75000000       0.50000000       0.33333334 </v>
    <v>       0.00000000       0.25000000       0.33333334 </v>
    <v>       0.00000000       0.75000000       0.33333334 </v>
    <v>       0.50000000       0.25000000       0.33333334 </v>
    <v>       0.50000000       0.75000000       0.33333334 </v>
    <v>       0.16666667       0.33333334       0.44444445 </v>
    <v>       0.16666667       0.83333334       0.44444445 </v>
    <v>       0.66666667       0.33333334       0.44444445 </v>
    <v>       0.66666667       0.83333334       0.44444445 </v>
    <v>       0.41666666       0.08333334       0.44444445 </v>
    <v>       0.41666666       0.58333334       0.44444445 </v>
    <v>       0.91666666       0.08333334       0.44444445 </v>
    <v>       0.91666666       0.58333334       0.44444445 </v>
    <v>       0.41666666       0.33333334       0.44444445 </v>
    <v>       0.41666666       0.83333334       0.44444445 </v>
    <v>       0.91666666       0.33333334       0.44444445 </v>
    <v>       0.91666666       0.83333334       0.44444445 </v>
    <v>       0.16666667       0.08333334       0.44444445 </v>
    <v>       0.16666667       0.58333334       0.44444445 </v>
    <v>       0.66666667       0.08333334       0.44444445 </v>
    <v>       0.66666667       0.58333334       0.44444445 </v>
    <v>       0.00060404       0.00120809       0.07927097 </v>
    <v>       0.00060404       0.50120809       0.07927097 </v>
    <v>       0.50060404       0.00120809       0.07927097 </v>
    <v>       0.50060404       0.50120809       0.07927097 </v>
    <v>       0.00060404       0.24939596       0.07927100 </v>
    <v>       0.00060404       0.74939596       0.07927100 </v>
    <v>       0.50060404       0.24939596       0.07927100 </v>
    <v>       0.50060404       0.74939596       0.07927100 </v>
    <v>       0.25000000       0.00000000       0.08094485 </v>
    <v>       0.25000000       0.50000000       0.08094485 </v>
    <v>       0.75000000       0.00000000       0.08094485 </v>
    <v>       0.75000000       0.50000000       0.08094485 </v>
    <v>       0.24879191       0.24939596       0.07927100 </v>
    <v>       0.24879191       0.74939596       0.07927100 </v>
    <v>       0.74879191       0.24939596       0.07927100 </v>
    <v>       0.74879191       0.74939596       0.07927100 </v>
    <v>       0.16660331       0.33320661       0.19452973 </v>
    <v>       0.16660331       0.83320661       0.19452973 </v>
    <v>       0.66660331       0.33320661       0.19452973 </v>
    <v>       0.66660331       0.83320661       0.19452973 </v>
    <v>       0.16660331       0.08339670       0.19452973 </v>
    <v>       0.16660331       0.58339670       0.19452973 </v>
    <v>       0.66660331       0.08339670       0.19452973 </v>
    <v>       0.66660331       0.58339670       0.19452973 </v>
    <v>       0.41666666       0.33333334       0.19342860 </v>
    <v>       0.41666666       0.83333334       0.19342860 </v>
[...]
       <r>    -6.2408    17.7478  1058.4135 </r>
       <r>    -6.1702    18.3862  1059.7117 </r>
       <r>    -6.0996     1.4463  1059.8138 </r>
       <r>    -6.0290    13.2656  1060.7504 </r>
       <r>    -5.9584    67.0661  1065.4857 </r>
       <r>    -5.8878    88.5661  1071.7391 </r>
       <r>    -5.8172    62.1865  1076.1299 </r>
       <r>    -5.7466    44.2569  1079.2547 </r>
       <r>    -5.6760    59.3013  1083.4418 </r>
       <r>    -5.6054    71.7116  1088.5051 </r>
       <r>    -5.5348    88.8814  1094.7807 </r>
       <r>    -5.4641    90.2243  1101.1511 </r>
       <r>    -5.3935    65.5415  1105.7788 </r>
       <r>    -5.3229   113.6372  1113.8023 </r>
       <r>    -5.2523   128.0710  1122.8450 </r>
       <r>    -5.1817   109.4467  1130.5727 </r>
       <r>    -5.1111   102.3099  1137.7964 </r>
       <r>    -5.0405    68.3219  1142.6204 </r>
       <r>    -4.9699    47.2680  1145.9579 </r>
       <r>    -4.8993    80.5214  1151.6432 </r>
       <r>    -4.8287    76.6350  1157.0541 </r>
       <r>    -4.7581    58.9735  1161.2181 </r>
       <r>    -4.6875    77.7502  1166.7077 </r>
       <r>    -4.6169    65.0947  1171.3039 </r>
       <r>    -4.5463    68.9690  1176.1735 </r>
       <r>    -4.4757    38.3484  1178.8812 </r>
       <r>    -4.4050    12.4993  1179.7637 </r>
       <r>    -4.3344    47.5423  1183.1205 </r>
       <r>    -4.2638    25.2235  1184.9015 </r>
       <r>    -4.1932    20.9886  1186.3834 </r>
       <r>    -4.1226    12.5319  1187.2682 </r>
       <r>    -4.0520    15.4472  1188.3589 </r>
       <r>    -3.9814    13.7309  1189.3284 </r>
       <r>    -3.9108     4.9071  1189.6749 </r>
       <r>    -3.8402    27.0701  1191.5862 </r>
       <r>    -3.7696    58.1101  1195.6892 </r>
       <r>    -3.6990    41.5272  1198.6213 </r>
       <r>    -3.6284    39.3615  1201.4005 </r>
       <r>    -3.5578    19.8503  1202.8020 </r>
       <r>    -3.4872    18.9681  1204.1413 </r>
       <r>    -3.4166    27.5865  1206.0891 </r>
       <r>    -3.3459    29.0366  1208.1393 </r>
       <r>    -3.2753    22.8242  1209.7508 </r>
       <r>    -3.2047    54.6281  1213.6079 </r>
       <r>    -3.1341   140.1860  1223.5060 </r>
       <r>    -3.0635    97.6399  1230.4000 </r>
       <r>    -2.9929    73.4178  1235.5838 </r>
       <r>    -2.9223    22.7190  1237.1879 </r>
       <r>    -2.8517    41.3545  1240.1078 </r>
       <r>    -2.7811    42.7533  1243.1265 </r>
       <r>    -2.7105    61.7411  1247.4858 </r>
       <r>    -2.6399    55.9830  1251.4386 </r>
       <r>    -2.5693    71.2858  1256.4718 </r>
       <r>    -2.4987    95.5270  1263.2167 </r>
       <r>    -2.4281   134.1284  1272.6870 </r>
       <r>    -2.3575   138.0770  1282.4362 </r>
       <r>    -2.2868   107.0683  1289.9959 </r>
       <r>    -2.2162    67.5113  1294.7627 </r>
       <r>    -2.1456    70.5501  1299.7440 </r>
       <r>    -2.0750    87.2841  1305.9068 </r>
       <r>    -2.0044    98.9937  1312.8964 </r>
       <r>    -1.9338   124.5167  1321.6881 </r>
       <r>    -1.8632   150.2932  1332.2998 </r>
       <r>    -1.7926   139.3256  1342.1371 </r>
       <r>    -1.7220   141.2671  1352.1115 </r>
       <r>    -1.6514   112.1716  1360.0316 </r>
       <r>    -1.5808   121.7292  1368.6265 </r>
       <r>    -1.5102   163.0796  1380.1410 </r>
       <r>    -1.4396   130.2185  1389.3353 </r>
       <r>    -1.3690    56.9643  1393.3574 </r>
       <r>    -1.2984   101.1352  1400.4982 </r>
       <r>    -1.2277   109.0166  1408.1955 </r>
       <r>    -1.1571   121.5794  1416.7798 </r>
       <r>    -1.0865   130.1841  1425.9717 </r>
       <r>    -1.0159   137.1350  1435.6543 </r>
       <r>    -0.9453   112.6059  1443.6050 </r>
       <r>    -0.8747   103.3146  1450.8997 </r>
       <r>    -0.8041    90.1758  1457.2667 </r>
       <r>    -0.7335    97.5168  1464.1521 </r>
       <r>    -0.6629   109.8698  1471.9096 </r>
       <r>    -0.5923   127.9568  1480.9442 </r>
       <r>    -0.5217   114.5423  1489.0317 </r>
       <r>    -0.4511    95.0102  1495.7400 </r>
       <r>    -0.3805    63.8798  1500.2504 </r>
       <r>    -0.3099   100.6281  1507.3554 </r>
       <r>    -0.2393    71.3614  1512.3940 </r>
       <r>    -0.1686    44.7562  1515.5541 </r>
       <r>    -0.0980    34.6250  1517.9988 </r>
       <r>    -0.0274    44.5918  1521.1473 </r>
       <r>     0.0432    26.1679  1522.9949 </r>
       <r>     0.1138    31.7715  1525.2382 </r>
       <r>     0.1844    18.5873  1526.5506 </r>
       <r>     0.2550    22.1545  1528.1148 </r>
       <r>     0.3256    19.7782  1529.5113 </r>
       <r>     0.3962    25.3282  1531.2996 </r>
       <r>     0.4668    17.7081  1532.5500 </r>
       <r>     0.5374    23.0422  1534.1769 </r>
       <r>     0.6080    13.2640  1535.1134 </r>
       <r>     0.6786     4.1301  1535.4050 </r>
       <r>     0.7492     2.0863  1535.5523 </r>
       <r>     0.8198     0.7513  1535.6054 </r>
       <r>     0.8905     4.5142  1535.9241 </r>
       <r>     0.9611    10.2478  1536.6477 </r>
       <r>     1.0317    28.7349  1538.6765 </r>
       <r>     1.1023    30.3039  1540.8162 </r>
       <r>     1.1729    18.5583  1542.1265 </r>
       <r>     1.2435     9.8939  1542.8251 </r>
       <r>     1.3141     1.4692  1542.9289 </r>
       <r>     1.3847    14.9206  1543.9823 </r>
       <r>     1.4553    60.8548  1548.2791 </r>
       <r>     1.5259    50.3927  1551.8372 </r>
       <r>     1.5965    16.8705  1553.0283 </r>
       <r>     1.6671    31.7930  1555.2731 </r>
       <r>     1.7377    50.2184  1558.8189 </r>
       <r>     1.8083    58.7533  1562.9673 </r>
       <r>     1.8789    53.9824  1566.7788 </r>
       <r>     1.9496    56.1776  1570.7453 </r>
       <r>     2.0202    35.4209  1573.2462 </r>
       <r>     2.0908    43.0248  1576.2841 </r>
       <r>     2.1614    32.8469  1578.6033 </r>
       <r>     2.2320    73.1688  1583.7695 </r>
       <r>     2.3026    87.3664  1589.9381 </r>
       <r>     2.3732   110.4716  1597.7382 </r>
       <r>     2.4438   117.5936  1606.0411 </r>
       <r>     2.5144    84.9874  1612.0417 </r>
       <r>     2.5850   105.6409  1619.5007 </r>
       <r>     2.6556   116.7800  1627.7461 </r>
       <r>     2.7262    97.0251  1634.5967 </r>
       <r>     2.7968   115.2201  1642.7321 </r>
       <r>     2.8674   120.9963  1651.2752 </r>
       <r>     2.9380   118.8276  1659.6652 </r>
       <r>     3.0087   116.6920  1667.9045 </r>
       <r>     3.0793   162.0086  1679.3433 </r>
       <r>     3.1499   106.0567  1686.8317 </r>
       <r>     3.2205    97.8313  1693.7392 </r>
       <r>     3.2911    77.9460  1699.2427 </r>
       <r>     3.3617    88.6487  1705.5019 </r>
       <r>     3.4323   111.3547  1713.3643 </r>
       <r>     3.5029    86.4203  1719.4661 </r>
       <r>     3.5735    75.6717  1724.8091 </r>
       <r>     3.6441    80.7272  1730.5089 </r>
       <r>     3.7147    57.8522  1734.5937 </r>
       <r>     3.7853    73.5886  1739.7895 </r>
       <r>     3.8559    82.4261  1745.6094 </r>
       <r>     3.9265   109.2722  1753.3247 </r>
       <r>     3.9971   119.3467  1761.7514 </r>
       <r>     4.0678   103.1705  1769.0359 </r>
       <r>     4.1384    85.1850  1775.0505 </r>
       <r>     4.2090    85.4601  1781.0846 </r>
       <r>     4.2796    95.6965  1787.8414 </r>
       <r>     4.3502    62.0566  1792.2230 </r>
       <r>     4.4208    92.5347  1798.7566 </r>
       <r>     4.4914    97.5542  1805.6446 </r>
       <r>     4.5620    83.5940  1811.5468 </r>
       <r>     4.6326   131.2641  1820.8150 </r>
       <r>     4.7032   130.1365  1830.0035 </r>
       <r>     4.7738   123.1761  1838.7005 </r>
       <r>     4.8444   104.4633  1846.0763 </r>
       <r>     4.9150    26.1352  1847.9216 </r>
       <r>     4.9856     1.1063  1847.9998 </r>
       <r>     5.0562     0.0034  1848.0000 </r>
       <r>     5.1269     0.0000  1848.0000 </r>
       <r>     5.1975     0.0000  1848.0000 </r>
       <r>     5.2681     0.0000  1848.0000 </r>
       <r>     5.3387     0.0000  1848.0000 </r>
       <r>     5.4093     0.0000  1848.0000 </r>
       <r>     5.4799     0.0000  1848.0000 </r>
       <r>     5.5505     0.0000  1848.0000 </r>
       <r>     5.6211     0.0000  1848.0000 </r>
       <r>     5.6917     0.0000  1848.0000 </r>
       <r>     5.7623     0.0000  1848.0000 </r>
       <r>     5.8329     0.0000  1848.0000 </r>
      </set>
     </set>
    </array>
   </total>
  </dos>
 </calculation>
 <structure name="finalpos" >
  <crystal>
   <varray name="basis" >
    <v>      17.03433609       0.00000000       0.00000000 </v>
    <v>      -8.51716805      14.75216779       0.00000000 </v>
    <v>       0.00000000       0.00000000      31.29407310 </v>
   </varray>
   <i name="volume">   7863.99353597 </i>
   <varray name="rec_basis" >
    <v>       0.05870496       0.03389332       0.00000000 </v>
    <v>       0.00000000       0.06778665       0.00000000 </v>
    <v>       0.00000000       0.00000000       0.03195493 </v>
   </varray>
  </crystal>
  <varray name="positions" >
   <v>       0.04889542       0.39944771       0.99568253 </v>
   <v>       0.04889542       0.89944771       0.99568253 </v>
   <v>       0.54889542       0.39944771       0.99568253 </v>
   <v>       0.54889542       0.89944771       0.99568253 </v>
   <v>       0.35055229       0.39944771       0.99568253 </v>
   <v>       0.35055229       0.89944771       0.99568253 </v>
   <v>       0.85055229       0.39944771       0.99568253 </v>
   <v>       0.85055229       0.89944771       0.99568253 </v>
   <v>       0.35055229       0.20110457       0.99568253 </v>
   <v>       0.35055229       0.70110457       0.99568253 </v>
   <v>       0.85055229       0.20110457       0.99568253 </v>
   <v>       0.85055229       0.70110457       0.99568253 </v>
   <v>       0.02613653       0.05227307       0.99445054 </v>
   <v>       0.02661586       0.55323172       0.99490245 </v>
   <v>       0.52661586       0.05323172       0.99490245 </v>
   <v>       0.52661586       0.55323172       0.99490245 </v>
   <v>       0.19676828       0.22338414       0.99490245 </v>
   <v>       0.19676828       0.72338414       0.99490245 </v>
   <v>       0.69676828       0.22338414       0.99490245 </v>
   <v>       0.69676828       0.72338414       0.99490245 </v>
   <v>       0.25000000       0.00000000       0.99493075 </v>
   <v>       0.25000000       0.50000000       0.99493075 </v>
   <v>       0.75000000       0.00000000       0.99493075 </v>
   <v>       0.75000000       0.50000000       0.99493075 </v>
   <v>       0.02661586       0.22338414       0.99490245 </v>
   <v>       0.02661586       0.72338414       0.99490245 </v>
   <v>       0.52661586       0.22338414       0.99490245 </v>
   <v>       0.52661586       0.72338414       0.99490245 </v>
   <v>       0.16687125       0.33374251       0.11114905 </v>
   <v>       0.16687125       0.83374251       0.11114905 </v>
   <v>       0.66687125       0.33374251       0.11114905 </v>
   <v>       0.66687125       0.83374251       0.11114905 </v>
   <v>       0.41625749       0.08312875       0.11114905 </v>
   <v>       0.41625749       0.58312875       0.11114905 </v>
   <v>       0.91625749       0.08312875       0.11114905 </v>
   <v>       0.91625749       0.58312875       0.11114905 </v>
   <v>       0.41666666       0.33333334       0.10951073 </v>
   <v>       0.41666666       0.83333334       0.10951073 </v>
   <v>       0.91666666       0.33333334       0.10951073 </v>
   <v>       0.91666666       0.83333334       0.10951073 </v>
   <v>       0.16687125       0.08312875       0.11114905 </v>
   <v>       0.16687125       0.58312875       0.11114905 </v>
   <v>       0.66687125       0.08312875       0.11114905 </v>
   <v>       0.66687125       0.58312875       0.11114905 </v>
   <v>       0.33333334       0.16666667       0.22222222 </v>
   <v>       0.33333334       0.66666667       0.22222222 </v>
   <v>       0.83333334       0.16666667       0.22222222 </v>
   <v>       0.83333334       0.66666667       0.22222222 </v>
   <v>       0.08333331       0.41666666       0.22222222 </v>
   <v>       0.08333331       0.91666666       0.22222222 </v>
   <v>       0.58333331       0.41666666       0.22222222 </v>
   <v>       0.58333331       0.91666666       0.22222222 </v>
   <v>       0.08333331       0.16666669       0.22222222 </v>
   <v>       0.08333331       0.66666669       0.22222222 </v>
   <v>       0.58333331       0.16666669       0.22222222 </v>
   <v>       0.58333331       0.66666669       0.22222222 </v>
   <v>       0.33333334       0.41666666       0.22222222 </v>
   <v>       0.33333334       0.91666666       0.22222222 </v>
   <v>       0.83333334       0.41666666       0.22222222 </v>
   <v>       0.83333334       0.91666666       0.22222222 </v>
   <v>       0.00000000       0.00000000       0.33333334 </v>
   <v>       0.00000000       0.50000000       0.33333334 </v>
   <v>       0.50000000       0.00000000       0.33333334 </v>
   <v>       0.50000000       0.50000000       0.33333334 </v>
   <v>       0.25000000       0.25000000       0.33333334 </v>
   <v>       0.25000000       0.75000000       0.33333334 </v>
   <v>       0.75000000       0.25000000       0.33333334 </v>
   <v>       0.75000000       0.75000000       0.33333334 </v>
   <v>       0.25000000       0.00000000       0.33333334 </v>
   <v>       0.25000000       0.50000000       0.33333334 </v>
   <v>       0.75000000       0.00000000       0.33333334 </v>
   <v>       0.75000000       0.50000000       0.33333334 </v>
   <v>       0.00000000       0.25000000       0.33333334 </v>
   <v>       0.00000000       0.75000000       0.33333334 </v>
   <v>       0.50000000       0.25000000       0.33333334 </v>
   <v>       0.50000000       0.75000000       0.33333334 </v>
   <v>       0.16666667       0.33333334       0.44444445 </v>
   <v>       0.16666667       0.83333334       0.44444445 </v>
   <v>       0.66666667       0.33333334       0.44444445 </v>
   <v>       0.66666667       0.83333334       0.44444445 </v>
   <v>       0.41666666       0.08333334       0.44444445 </v>
   <v>       0.41666666       0.58333334       0.44444445 </v>
   <v>       0.91666666       0.08333334       0.44444445 </v>
   <v>       0.91666666       0.58333334       0.44444445 </v>
   <v>       0.41666666       0.33333334       0.44444445 </v>
   <v>       0.41666666       0.83333334       0.44444445 </v>
   <v>       0.91666666       0.33333334       0.44444445 </v>
   <v>       0.91666666       0.83333334       0.44444445 </v>
   <v>       0.16666667       0.08333334       0.44444445 </v>
   <v>       0.16666667       0.58333334       0.44444445 </v>
   <v>       0.66666667       0.08333334       0.44444445 </v>
   <v>       0.66666667       0.58333334       0.44444445 </v>
   <v>       0.00060404       0.00120809       0.07927097 </v>
   <v>       0.00060404       0.50120809       0.07927097 </v>
   <v>       0.50060404       0.00120809       0.07927097 </v>
   <v>       0.50060404       0.50120809       0.07927097 </v>
   <v>       0.00060404       0.24939596       0.07927100 </v>
   <v>       0.00060404       0.74939596       0.07927100 </v>
   <v>       0.50060404       0.24939596       0.07927100 </v>
   <v>       0.50060404       0.74939596       0.07927100 </v>
   <v>       0.25000000       0.00000000       0.08094485 </v>
   <v>       0.25000000       0.50000000       0.08094485 </v>
   <v>       0.75000000       0.00000000       0.08094485 </v>
   <v>       0.75000000       0.50000000       0.08094485 </v>
   <v>       0.24879191       0.24939596       0.07927100 </v>
   <v>       0.24879191       0.74939596       0.07927100 </v>
   <v>       0.74879191       0.24939596       0.07927100 </v>
   <v>       0.74879191       0.74939596       0.07927100 </v>
   <v>       0.16660331       0.33320661       0.19452973 </v>
   <v>       0.16660331       0.83320661       0.19452973 </v>
   <v>       0.66660331       0.33320661       0.19452973 </v>
   <v>       0.66660331       0.83320661       0.19452973 </v>
   <v>       0.16660331       0.08339670       0.19452973 </v>
   <v>       0.16660331       0.58339670       0.19452973 </v>
   <v>       0.66660331       0.08339670       0.19452973 </v>
   <v>       0.66660331       0.58339670       0.19452973 </v>
   <v>       0.41666666       0.33333334       0.19342860 </v>
   <v>       0.41666666       0.83333334       0.19342860 </v>
   <v>       0.91666666       0.33333334       0.19342860 </v>
   <v>       0.91666666       0.83333334       0.19342860 </v>
   <v>       0.41679339       0.08339670       0.19452973 </v>
   <v>       0.41679339       0.58339670       0.19452973 </v>
   <v>       0.91679339       0.08339670       0.19452973 </v>
   <v>       0.91679339       0.58339670       0.19452973 </v>
   <v>       0.33333334       0.16666667       0.30555555 </v>
   <v>       0.33333334       0.66666667       0.30555555 </v>
   <v>       0.83333334       0.16666667       0.30555555 </v>
   <v>       0.83333334       0.66666667       0.30555555 </v>
   <v>       0.33333334       0.41666666       0.30555555 </v>
   <v>       0.33333334       0.91666666       0.30555555 </v>
   <v>       0.83333334       0.41666666       0.30555555 </v>
   <v>       0.83333334       0.91666666       0.30555555 </v>
   <v>       0.08333331       0.16666669       0.30555555 </v>
   <v>       0.08333331       0.66666669       0.30555555 </v>
   <v>       0.58333331       0.16666669       0.30555555 </v>
   <v>       0.58333331       0.66666669       0.30555555 </v>
   <v>       0.08333331       0.41666666       0.30555555 </v>
   <v>       0.08333331       0.91666666       0.30555555 </v>
   <v>       0.58333331       0.41666666       0.30555555 </v>
   <v>       0.58333331       0.91666666       0.30555555 </v>
   <v>       0.00000000       0.00000000       0.41666666 </v>
   <v>       0.00000000       0.50000000       0.41666666 </v>
   <v>       0.50000000       0.00000000       0.41666666 </v>
   <v>       0.50000000       0.50000000       0.41666666 </v>
   <v>       0.00000000       0.25000000       0.41666666 </v>
   <v>       0.00000000       0.75000000       0.41666666 </v>
   <v>       0.50000000       0.25000000       0.41666666 </v>
   <v>       0.50000000       0.75000000       0.41666666 </v>
   <v>       0.25000000       0.00000000       0.41666666 </v>
   <v>       0.25000000       0.50000000       0.41666666 </v>
   <v>       0.75000000       0.00000000       0.41666666 </v>
   <v>       0.75000000       0.50000000       0.41666666 </v>
   <v>       0.25000000       0.25000000       0.41666666 </v>
   <v>       0.25000000       0.75000000       0.41666666 </v>
   <v>       0.75000000       0.25000000       0.41666666 </v>
   <v>       0.75000000       0.75000000       0.41666666 </v>
   <v>       0.16666667       0.33333334       0.50007080 </v>
   <v>       0.16666667       0.83333334       0.50007080 </v>
   <v>       0.66666667       0.33333334       0.50007080 </v>
   <v>       0.66666667       0.83333334       0.50007080 </v>
   <v>       0.16666667       0.08333334       0.50007080 </v>
   <v>       0.16666667       0.58333334       0.50007080 </v>
   <v>       0.66666667       0.08333334       0.50007080 </v>
   <v>       0.66666667       0.58333334       0.50007080 </v>
   <v>       0.41666666       0.33333334       0.50007080 </v>
   <v>       0.41666666       0.83333334       0.50007080 </v>
   <v>       0.91666666       0.33333334       0.50007080 </v>
   <v>       0.91666666       0.83333334       0.50007080 </v>
   <v>       0.41666666       0.08333334       0.50007080 </v>
   <v>       0.41666666       0.58333334       0.50007080 </v>
   <v>       0.91666666       0.08333334       0.50007080 </v>
   <v>       0.91666666       0.58333334       0.50007080 </v>
  </varray>
 </structure>
</modeling>
