<?xml version="1.0" encoding="ISO-8859-1"?>
<modeling>
 <generator>
  <i name="program" type="string">vasp </i>
  <i name="version" type="string">5.4.4.18Apr17-6-g9f103f2a35  </i>
  <i name="subversion" type="string">(build Feb 09 2021 16:27:36) complex            parallel </i>
  <i name="platform" type="string">IFC15_impi </i>
  <i name="date" type="string">2021 04 29 </i>
  <i name="time" type="string">03:37:23 </i>
 </generator>
 <incar>
  <i type="int" name="ISTART">     0</i>
  <i type="string" name="PREC">a</i>
  <i type="logical" name="ADDGRID"> T  </i>
  <i type="int" name="NELM">   300</i>
  <i type="int" name="NELMIN">     5</i>
  <i type="int" name="IBRION">    -1</i>
  <i name="EDIFF">      0.00000001</i>
  <i name="ENCUT">    500.00000000</i>
  <i type="logical" name="LREAL"> F  </i>
  <i type="int" name="ISMEAR">     0</i>
  <i name="SIGMA">      0.05000000</i>
  <i type="logical" name="LWAVE"> F  </i>
  <i type="logical" name="LCHARG"> F  </i>
  <v type="int" name="KPOINT_BSE">    -1     0     0     0</v>
  <i type="int" name="NELM">   300</i>
  <i type="logical" name="LDIPOL"> T  </i>
  <i type="int" name="IDIPOL">     3</i>
 </incar>
 <structure name="primitive_cell" >
  <crystal>
   <varray name="basis" >
    <v>      17.03433609       0.00000000       0.00000000 </v>
    <v>      -8.51716805      14.75216779       0.00000000 </v>
    <v>       0.00000000       0.00000000      31.29407310 </v>
   </varray>
   <i name="volume">   7863.99353597 </i>
   <varray name="rec_basis" >
    <v>       0.05870496       0.03389332       0.00000000 </v>
    <v>       0.00000000       0.06778665       0.00000000 </v>
    <v>       0.00000000       0.00000000       0.03195493 </v>
   </varray>
  </crystal>
  <varray name="positions" >
   <v>       0.04806521       0.39944771      -0.00476938 </v>
   <v>       0.02661586      -0.44676828      -0.00509755 </v>
   <v>       0.02661586       0.22338414      -0.00509755 </v>
   <v>       0.25000000      -0.50000000      -0.00506925 </v>
   <v>      -0.14944771       0.39944771      -0.00431747 </v>
   <v>      -0.14944771       0.20110457      -0.00431747 </v>
   <v>       0.00060404      -0.49879191       0.07927097 </v>
   <v>       0.00060404       0.24939596       0.07927100 </v>
   <v>       0.25000000      -0.50000000       0.08094485 </v>
   <v>      -0.08333334       0.33333334       0.10951073 </v>
   <v>       0.16687125      -0.41687125       0.11114905 </v>
   <v>       0.16687125       0.33374251       0.11114905 </v>
   <v>       0.19676828      -0.27661586      -0.00509755 </v>
   <v>       0.19676828       0.22338414      -0.00509755 </v>
   <v>      -0.25120809       0.24939596       0.07927100 </v>
   <v>       0.35055229      -0.29889543      -0.00431747 </v>
   <v>       0.35055229       0.39944771      -0.00431747 </v>
   <v>      -0.30323172       0.22338414      -0.00509755 </v>
   <v>       0.02661586      -0.27661586      -0.00509755 </v>
   <v>       0.02661586       0.05323172      -0.00509755 </v>
   <v>       0.24879191      -0.25060404       0.07927100 </v>
   <v>       0.24879191       0.24939596       0.07927100 </v>
   <v>      -0.08374251      -0.41687125       0.11114905 </v>
   <v>      -0.08374251       0.08312875       0.11114905 </v>
   <v>      -0.25000000      -0.50000000      -0.00506925 </v>
   <v>      -0.25000000       0.00000000      -0.00506925 </v>
   <v>      -0.08333334       0.33333334       0.19342860 </v>
   <v>       0.41625749      -0.41687125       0.11114905 </v>
   <v>      -0.25000000      -0.50000000       0.08094485 </v>
   <v>      -0.25000000       0.00000000       0.08094485 </v>
   <v>       0.16660331      -0.41660330       0.19452973 </v>
   <v>       0.16660331       0.33320661       0.19452973 </v>
   <v>       0.00060404      -0.25060404       0.07927100 </v>
   <v>       0.00060404       0.00120809       0.07927097 </v>
   <v>      -0.33312875       0.33374251       0.11114905 </v>
   <v>      -0.33312875       0.08312875       0.11114905 </v>
   <v>       0.08333331       0.41666666       0.22222222 </v>
   <v>      -0.47338414      -0.27661586      -0.00509755 </v>
   <v>      -0.47338414      -0.44676828      -0.00509755 </v>
   <v>      -0.14944771      -0.29889543      -0.00431747 </v>
   <v>       0.35055229      -0.10055229      -0.00431747 </v>
   <v>      -0.14944771      -0.10055229      -0.00431747 </v>
   <v>       0.35055229       0.20110457      -0.00431747 </v>
   <v>      -0.49939596      -0.25060404       0.07927100 </v>
   <v>      -0.49939596      -0.49879191       0.07927097 </v>
   <v>       0.16687125      -0.16625749       0.11114905 </v>
   <v>       0.16687125       0.08312875       0.11114905 </v>
   <v>       0.41666666      -0.16666666       0.10951073 </v>
   <v>       0.41666666       0.33333334       0.10951073 </v>
   <v>      -0.08320661      -0.41660330       0.19452973 </v>
   <v>      -0.08320661       0.08339670       0.19452973 </v>
   <v>      -0.47338414       0.22338414      -0.00509755 </v>
   <v>      -0.47338414       0.05323172      -0.00509755 </v>
   <v>      -0.16666666       0.41666666       0.22222222 </v>
   <v>      -0.16666666       0.16666667       0.22222222 </v>
   <v>       0.41679339      -0.41660330       0.19452973 </v>
   <v>       0.08333331      -0.33333331       0.22222222 </v>
   <v>       0.08333331       0.16666669       0.22222222 </v>
   <v>      -0.45110458       0.39944771      -0.00431747 </v>
   <v>       0.04889542      -0.10055229      -0.00431747 </v>
   <v>      -0.45110458      -0.10055229      -0.00431747 </v>
   <v>       0.33333334      -0.33333333       0.22222222 </v>
   <v>       0.33333334       0.41666666       0.22222222 </v>
   <v>      -0.33339669       0.33320661       0.19452973 </v>
   <v>      -0.33339669       0.08339670       0.19452973 </v>
   <v>      -0.49939596       0.24939596       0.07927100 </v>
   <v>      -0.49939596       0.00120809       0.07927097 </v>
   <v>       0.25000000       0.00000000      -0.00506925 </v>
   <v>       0.16660331      -0.16679339       0.19452973 </v>
   <v>       0.16660331       0.08339670       0.19452973 </v>
   <v>      -0.33312875      -0.41687125       0.11114905 </v>
   <v>      -0.33312875      -0.16625749       0.11114905 </v>
   <v>       0.41666666      -0.16666666       0.19342860 </v>
   <v>       0.41666666       0.33333334       0.19342860 </v>
   <v>       0.25000000       0.00000000       0.08094485 </v>
   <v>      -0.08333334      -0.16666666       0.10951073 </v>
   <v>      -0.30323172      -0.27661586      -0.00509755 </v>
   <v>       0.08333331       0.41666666       0.30555555 </v>
   <v>      -0.41666669       0.16666669       0.22222222 </v>
   <v>      -0.25120809      -0.25060404       0.07927100 </v>
   <v>       0.41625749       0.08312875       0.11114905 </v>
   <v>      -0.16666666      -0.33333333       0.22222222 </v>
   <v>      -0.16666666      -0.08333334       0.22222222 </v>
   <v>      -0.16666666       0.41666666       0.30555555 </v>
   <v>       0.33333334      -0.08333334       0.22222222 </v>
   <v>      -0.16666666       0.16666667       0.30555555 </v>
   <v>       0.33333334       0.16666667       0.22222222 </v>
   <v>      -0.33339669      -0.41660330       0.19452973 </v>
   <v>      -0.33339669      -0.16679339       0.19452973 </v>
   <v>       0.08333331      -0.33333331       0.30555555 </v>
   <v>       0.08333331       0.16666669       0.30555555 </v>
   <v>      -0.41666669      -0.33333331       0.22222222 </v>
   <v>      -0.08333334      -0.16666666       0.19342860 </v>
   <v>      -0.41666669       0.41666666       0.22222222 </v>
   <v>      -0.41666669      -0.08333334       0.22222222 </v>
   <v>       0.33333334      -0.33333333       0.30555555 </v>
   <v>       0.33333334       0.41666666       0.30555555 </v>
   <v>       0.00000000      -0.50000000       0.33333334 </v>
   <v>       0.00000000       0.25000000       0.33333334 </v>
   <v>       0.25000000      -0.50000000       0.33333334 </v>
   <v>       0.08333331      -0.08333334       0.22222222 </v>
   <v>       0.41679339       0.08339670       0.19452973 </v>
   <v>      -0.25000000       0.25000000       0.33333334 </v>
   <v>       0.25000000      -0.25000000       0.33333334 </v>
   <v>       0.25000000       0.25000000       0.33333334 </v>
   <v>      -0.41666669       0.16666669       0.30555555 </v>
   <v>      -0.16666666      -0.33333333       0.30555555 </v>
   <v>      -0.16666666      -0.08333334       0.30555555 </v>
   <v>      -0.25000000      -0.50000000       0.33333334 </v>
   <v>      -0.25000000       0.00000000       0.33333334 </v>
   <v>       0.33333334      -0.08333334       0.30555555 </v>
   <v>       0.33333334       0.16666667       0.30555555 </v>
   <v>       0.00000000      -0.25000000       0.33333334 </v>
   <v>       0.00000000       0.00000000       0.33333334 </v>
   <v>      -0.41666669      -0.33333331       0.30555555 </v>
   <v>      -0.41666669       0.41666666       0.30555555 </v>
   <v>      -0.41666669      -0.08333334       0.30555555 </v>
   <v>      -0.50000000      -0.25000000       0.33333334 </v>
   <v>      -0.50000000      -0.50000000       0.33333334 </v>
   <v>       0.08333331      -0.08333334       0.30555555 </v>
   <v>       0.00000000      -0.50000000       0.41666666 </v>
   <v>       0.00000000       0.25000000       0.41666666 </v>
   <v>      -0.50000000       0.25000000       0.33333334 </v>
   <v>      -0.50000000       0.00000000       0.33333334 </v>
   <v>       0.25000000      -0.50000000       0.41666666 </v>
   <v>       0.25000000       0.00000000       0.33333334 </v>
   <v>      -0.25000000       0.25000000       0.41666666 </v>
   <v>       0.25000000      -0.25000000       0.41666666 </v>
   <v>       0.25000000       0.25000000       0.41666666 </v>
   <v>      -0.08333334       0.33333334       0.44444445 </v>
   <v>      -0.25000000      -0.25000000       0.33333334 </v>
   <v>       0.16666667      -0.41666666       0.44444445 </v>
   <v>       0.16666667       0.33333334       0.44444445 </v>
   <v>      -0.25000000      -0.50000000       0.41666666 </v>
   <v>      -0.25000000       0.00000000       0.41666666 </v>
   <v>       0.00000000      -0.25000000       0.41666666 </v>
   <v>       0.00000000       0.00000000       0.41666666 </v>
   <v>      -0.08333334      -0.41666666       0.44444445 </v>
   <v>      -0.08333334       0.08333334       0.44444445 </v>
   <v>      -0.50000000      -0.25000000       0.41666666 </v>
   <v>      -0.50000000      -0.50000000       0.41666666 </v>
   <v>       0.41666666      -0.41666666       0.44444445 </v>
   <v>      -0.33333333       0.33333334       0.44444445 </v>
   <v>      -0.33333333       0.08333334       0.44444445 </v>
   <v>       0.16666667      -0.16666666       0.44444445 </v>
   <v>       0.16666667       0.08333334       0.44444445 </v>
   <v>      -0.50000000       0.25000000       0.41666666 </v>
   <v>      -0.50000000       0.00000000       0.41666666 </v>
   <v>      -0.08333334       0.33333334      -0.49992920 </v>
   <v>       0.41666666      -0.16666666       0.44444445 </v>
   <v>       0.41666666       0.33333334       0.44444445 </v>
   <v>       0.16666667      -0.41666666      -0.49992920 </v>
   <v>       0.16666667       0.33333334      -0.49992920 </v>
   <v>       0.25000000       0.00000000       0.41666666 </v>
   <v>      -0.08333334      -0.41666666      -0.49992920 </v>
   <v>      -0.08333334       0.08333334      -0.49992920 </v>
   <v>      -0.25000000      -0.25000000       0.41666666 </v>
   <v>       0.41666666      -0.41666666      -0.49992920 </v>
   <v>      -0.33333333      -0.41666666       0.44444445 </v>
   <v>      -0.33333333      -0.16666666       0.44444445 </v>
   <v>      -0.08333334      -0.16666666       0.44444445 </v>
   <v>      -0.33333333       0.33333334      -0.49992920 </v>
   <v>      -0.33333333       0.08333334      -0.49992920 </v>
   <v>       0.16666667      -0.16666666      -0.49992920 </v>
   <v>       0.16666667       0.08333334      -0.49992920 </v>
   <v>       0.41666666       0.08333334       0.44444445 </v>
   <v>       0.41666666      -0.16666666      -0.49992920 </v>
   <v>       0.41666666       0.33333334      -0.49992920 </v>
   <v>      -0.33333333      -0.41666666      -0.49992920 </v>
   <v>      -0.33333333      -0.16666666      -0.49992920 </v>
   <v>      -0.08333334      -0.16666666      -0.49992920 </v>
   <v>       0.41666666       0.08333334      -0.49992920 </v>
  </varray>
 </structure>
 <varray name="primitive_index" >
  <v type="int" >        1 </v>
  <v type="int" >       14 </v>
  <v type="int" >       25 </v>
  <v type="int" >       22 </v>
  <v type="int" >        7 </v>
  <v type="int" >       11 </v>
  <v type="int" >       94 </v>
  <v type="int" >       97 </v>
  <v type="int" >      102 </v>
  <v type="int" >       39 </v>
  <v type="int" >       42 </v>
  <v type="int" >       29 </v>
  <v type="int" >       18 </v>
  <v type="int" >       17 </v>
  <v type="int" >      107 </v>
  <v type="int" >       10 </v>
  <v type="int" >        5 </v>
  <v type="int" >       19 </v>
  <v type="int" >       26 </v>
  <v type="int" >       13 </v>
  <v type="int" >      106 </v>
  <v type="int" >      105 </v>
  <v type="int" >       36 </v>
  <v type="int" >       35 </v>
  <v type="int" >       24 </v>
  <v type="int" >       23 </v>
  <v type="int" >      119 </v>
  <v type="int" >       34 </v>
  <v type="int" >      104 </v>
  <v type="int" >      103 </v>
  <v type="int" >      114 </v>
  <v type="int" >      109 </v>
  <v type="int" >       98 </v>
  <v type="int" >       93 </v>
  <v type="int" >       31 </v>
  <v type="int" >       43 </v>
  <v type="int" >       49 </v>
  <v type="int" >       28 </v>
  <v type="int" >       16 </v>
  <v type="int" >       12 </v>
  <v type="int" >        6 </v>
  <v type="int" >        8 </v>
  <v type="int" >        9 </v>
  <v type="int" >      100 </v>
  <v type="int" >       96 </v>
  <v type="int" >       30 </v>
  <v type="int" >       41 </v>
  <v type="int" >       38 </v>
  <v type="int" >       37 </v>
  <v type="int" >      124 </v>
  <v type="int" >      123 </v>
  <v type="int" >       27 </v>
  <v type="int" >       15 </v>
  <v type="int" >       59 </v>
  <v type="int" >       47 </v>
  <v type="int" >      122 </v>
  <v type="int" >       54 </v>
  <v type="int" >       53 </v>
  <v type="int" >        3 </v>
  <v type="int" >        2 </v>
  <v type="int" >        4 </v>
  <v type="int" >       46 </v>
  <v type="int" >       57 </v>
  <v type="int" >      111 </v>
  <v type="int" >      115 </v>
  <v type="int" >       99 </v>
  <v type="int" >       95 </v>
  <v type="int" >       21 </v>
  <v type="int" >      110 </v>
  <v type="int" >      113 </v>
  <v type="int" >       44 </v>
  <v type="int" >       32 </v>
  <v type="int" >      118 </v>
  <v type="int" >      117 </v>
  <v type="int" >      101 </v>
  <v type="int" >       40 </v>
  <v type="int" >       20 </v>
  <v type="int" >      137 </v>
  <v type="int" >       55 </v>
  <v type="int" >      108 </v>
  <v type="int" >       33 </v>
  <v type="int" >       48 </v>
  <v type="int" >       60 </v>
  <v type="int" >      131 </v>
  <v type="int" >       58 </v>
  <v type="int" >      127 </v>
  <v type="int" >       45 </v>
  <v type="int" >      116 </v>
  <v type="int" >      112 </v>
  <v type="int" >      134 </v>
  <v type="int" >      133 </v>
  <v type="int" >       56 </v>
  <v type="int" >      120 </v>
  <v type="int" >       51 </v>
  <v type="int" >       52 </v>
  <v type="int" >      126 </v>
  <v type="int" >      129 </v>
  <v type="int" >       62 </v>
  <v type="int" >       73 </v>
  <v type="int" >       70 </v>
  <v type="int" >       50 </v>
  <v type="int" >      121 </v>
  <v type="int" >       67 </v>
  <v type="int" >       66 </v>
  <v type="int" >       65 </v>
  <v type="int" >      135 </v>
  <v type="int" >      128 </v>
  <v type="int" >      132 </v>
  <v type="int" >       72 </v>
  <v type="int" >       71 </v>
  <v type="int" >      130 </v>
  <v type="int" >      125 </v>
  <v type="int" >       74 </v>
  <v type="int" >       61 </v>
  <v type="int" >      136 </v>
  <v type="int" >      139 </v>
  <v type="int" >      140 </v>
  <v type="int" >       76 </v>
  <v type="int" >       64 </v>
  <v type="int" >      138 </v>
  <v type="int" >      142 </v>
  <v type="int" >      145 </v>
  <v type="int" >       75 </v>
  <v type="int" >       63 </v>
  <v type="int" >      150 </v>
  <v type="int" >       69 </v>
  <v type="int" >      155 </v>
  <v type="int" >      154 </v>
  <v type="int" >      153 </v>
  <v type="int" >       87 </v>
  <v type="int" >       68 </v>
  <v type="int" >       90 </v>
  <v type="int" >       77 </v>
  <v type="int" >      152 </v>
  <v type="int" >      151 </v>
  <v type="int" >      146 </v>
  <v type="int" >      141 </v>
  <v type="int" >       84 </v>
  <v type="int" >       83 </v>
  <v type="int" >      148 </v>
  <v type="int" >      144 </v>
  <v type="int" >       82 </v>
  <v type="int" >       79 </v>
  <v type="int" >       91 </v>
  <v type="int" >       78 </v>
  <v type="int" >       89 </v>
  <v type="int" >      147 </v>
  <v type="int" >      143 </v>
  <v type="int" >      167 </v>
  <v type="int" >       86 </v>
  <v type="int" >       85 </v>
  <v type="int" >      162 </v>
  <v type="int" >      157 </v>
  <v type="int" >      149 </v>
  <v type="int" >      172 </v>
  <v type="int" >      171 </v>
  <v type="int" >      156 </v>
  <v type="int" >      170 </v>
  <v type="int" >       92 </v>
  <v type="int" >       80 </v>
  <v type="int" >       88 </v>
  <v type="int" >      159 </v>
  <v type="int" >      163 </v>
  <v type="int" >      158 </v>
  <v type="int" >      161 </v>
  <v type="int" >       81 </v>
  <v type="int" >      166 </v>
  <v type="int" >      165 </v>
  <v type="int" >      164 </v>
  <v type="int" >      160 </v>
  <v type="int" >      168 </v>
  <v type="int" >      169 </v>
 </varray>
 <kpoints>
  <generation param="Gamma">
   <v type="int" name="divisions">       3        3        1 </v>
   <v name="usershift">      0.00000000       0.00000000       0.00000000 </v>
   <v name="genvec1">      0.33333333      -0.00000000       0.00000000 </v>
   <v name="genvec2">      0.00000000       0.33333333       0.00000000 </v>
   <v name="genvec3">      0.00000000       0.00000000       1.00000000 </v>
   <v name="shift">      0.00000000       0.00000000       0.00000000 </v>
  </generation>
  <varray name="kpointlist" >
   <v>       0.00000000       0.00000000       0.00000000 </v>
   <v>       0.33333333      -0.00000000       0.00000000 </v>
   <v>       0.00000000       0.33333333       0.00000000 </v>
   <v>       0.33333333       0.33333333       0.00000000 </v>
   <v>      -0.33333333       0.33333333       0.00000000 </v>
  </varray>
  <varray name="weights" >
   <v>       0.11111111 </v>
   <v>       0.22222222 </v>
   <v>       0.22222222 </v>
   <v>       0.22222222 </v>
   <v>       0.22222222 </v>
  </varray>
 </kpoints>
 <parameters>
  <separator name="general" >
   <i type="string" name="SYSTEM">unknown system</i>
   <i type="logical" name="LCOMPAT"> F  </i>
  </separator>
  <separator name="electronic" >
   <i type="string" name="PREC">a</i>
   <i name="ENMAX">    500.00000000</i>
   <i name="ENAUG">    462.75800000</i>
   <i name="EDIFF">      0.00000001</i>
   <i type="int" name="IALGO">    38</i>
   <i type="int" name="IWAVPR">    10</i>
   <i type="int" name="NBANDS">   924</i>
   <i name="NELECT">   1536.00000000</i>
   <i type="int" name="TURBO">     0</i>
   <i type="int" name="IRESTART">     0</i>
   <i type="int" name="NREBOOT">     0</i>
   <i type="int" name="NMIN">     0</i>
   <i name="EREF">      0.00000000</i>
   <separator name="electronic smearing" >
    <i type="int" name="ISMEAR">     0</i>
    <i name="SIGMA">      0.05000000</i>
    <i name="KSPACING">      0.50000000</i>
    <i type="logical" name="KGAMMA"> T  </i>
   </separator>
   <separator name="electronic projectors" >
    <i type="logical" name="LREAL"> F  </i>
    <v name="ROPT">      0.00000000      0.00000000      0.00000000</v>
    <i type="int" name="LMAXPAW">  -100</i>
    <i type="int" name="LMAXMIX">     2</i>
    <i type="logical" name="NLSPLINE"> F  </i>
   </separator>
   <separator name="electronic startup" >
    <i type="int" name="ISTART">     0</i>
    <i type="int" name="ICHARG">     2</i>
    <i type="int" name="INIWAV">     1</i>
   </separator>
   <separator name="electronic spin" >
    <i type="int" name="ISPIN">     1</i>
    <i type="logical" name="LNONCOLLINEAR"> F  </i>
    <v name="MAGMOM">      1.00000000      1.00000000      1.00000000      1.00000000      1.00000000      1.00000000      1.00000000      1.00000000      1.00000000      1.00000000      1.00000000      1.00000000      1.00000000      1.00000000      1.00000000      1.00000000      1.00000000      1.00000000      1.00000000      1.00000000
      1.00000000      1.00000000      1.00000000      1.00000000      1.00000000      1.00000000      1.00000000      1.00000000      1.00000000      1.00000000      1.00000000      1.00000000      1.00000000      1.00000000      1.00000000      1.00000000      1.00000000      1.00000000      1.00000000      1.00000000
      1.00000000      1.00000000      1.00000000      1.00000000      1.00000000      1.00000000      1.00000000      1.00000000      1.00000000      1.00000000      1.00000000      1.00000000      1.00000000      1.00000000      1.00000000      1.00000000      1.00000000      1.00000000      1.00000000      1.00000000
      1.00000000      1.00000000      1.00000000      1.00000000      1.00000000      1.00000000      1.00000000      1.00000000      1.00000000      1.00000000      1.00000000      1.00000000      1.00000000      1.00000000      1.00000000      1.00000000      1.00000000      1.00000000      1.00000000      1.00000000
      1.00000000      1.00000000      1.00000000      1.00000000      1.00000000      1.00000000      1.00000000      1.00000000      1.00000000      1.00000000      1.00000000      1.00000000      1.00000000      1.00000000      1.00000000      1.00000000      1.00000000      1.00000000      1.00000000      1.00000000
      1.00000000      1.00000000      1.00000000      1.00000000      1.00000000      1.00000000      1.00000000      1.00000000      1.00000000      1.00000000      1.00000000      1.00000000      1.00000000      1.00000000      1.00000000      1.00000000      1.00000000      1.00000000      1.00000000      1.00000000
      1.00000000      1.00000000      1.00000000      1.00000000      1.00000000      1.00000000      1.00000000      1.00000000      1.00000000      1.00000000      1.00000000      1.00000000      1.00000000      1.00000000      1.00000000      1.00000000      1.00000000      1.00000000      1.00000000      1.00000000
      1.00000000      1.00000000      1.00000000      1.00000000      1.00000000      1.00000000      1.00000000      1.00000000      1.00000000      1.00000000      1.00000000      1.00000000      1.00000000      1.00000000      1.00000000      1.00000000      1.00000000      1.00000000      1.00000000      1.00000000
      1.00000000      1.00000000      1.00000000      1.00000000      1.00000000      1.00000000      1.00000000      1.00000000      1.00000000      1.00000000      1.00000000      1.00000000</v>
    <i name="NUPDOWN">     -1.00000000</i>
    <i type="logical" name="LSORBIT"> F  </i>
    <v name="SAXIS">      0.00000000      0.00000000      1.00000000</v>
    <i type="logical" name="LSPIRAL"> F  </i>
    <v name="QSPIRAL">      0.00000000      0.00000000      0.00000000</v>
    <i type="logical" name="LZEROZ"> F  </i>
   </separator>
   <separator name="electronic exchange-correlation" >
    <i type="logical" name="LASPH"> F  </i>
    <i type="logical" name="LMETAGGA"> F  </i>
   </separator>
   <separator name="electronic convergence" >
    <i type="int" name="NELM">   300</i>
    <i type="int" name="NELMDL">    -5</i>
    <i type="int" name="NELMIN">     5</i>
    <i name="ENINI">    500.00000000</i>
    <separator name="electronic convergence detail" >
     <i type="logical" name="LDIAG"> T  </i>
     <i type="logical" name="LSUBROT"> F  </i>
     <i name="WEIMIN">      0.00000000</i>
     <i name="EBREAK">      0.00000000</i>
     <i name="DEPER">      0.30000000</i>
     <i type="int" name="NRMM">     4</i>
     <i name="TIME">      0.40000000</i>
    </separator>
   </separator>
   <separator name="electronic mixer" >
    <i name="AMIX">      0.40000000</i>
    <i name="BMIX">      1.00000000</i>
    <i name="AMIN">      0.10000000</i>
    <i name="AMIX_MAG">      1.60000000</i>
    <i name="BMIX_MAG">      1.00000000</i>
    <separator name="electronic mixer details" >
     <i type="int" name="IMIX">     4</i>
     <i type="logical" name="MIXFIRST"> F  </i>
     <i type="int" name="MAXMIX">   -45</i>
     <i name="WC">    100.00000000</i>
     <i type="int" name="INIMIX">     1</i>
     <i type="int" name="MIXPRE">     1</i>
     <i type="int" name="MREMOVE">     5</i>
    </separator>
   </separator>
   <separator name="electronic dipolcorrection" >
    <i type="logical" name="LDIPOL"> T  </i>
    <i type="logical" name="LMONO"> F  </i>
    <i type="int" name="IDIPOL">     3</i>
    <i name="EPSILON">      1.00000000</i>
    <v name="DIPOL">   -100.00000000   -100.00000000   -100.00000000</v>
    <i name="EFIELD">      0.00000000</i>
   </separator>
  </separator>
  <separator name="grids" >
   <i type="int" name="NGX">   126</i>
   <i type="int" name="NGY">   126</i>
   <i type="int" name="NGZ">   240</i>
   <i type="int" name="NGXF">   252</i>
   <i type="int" name="NGYF">   252</i>
   <i type="int" name="NGZF">   480</i>
   <i type="logical" name="ADDGRID"> T  </i>
  </separator>
  <separator name="ionic" >
   <i type="int" name="NSW">     0</i>
   <i type="int" name="IBRION">    -1</i>
   <i type="int" name="MDALGO">     0</i>
   <i type="int" name="ISIF">     2</i>
   <i name="PSTRESS">      0.00000000</i>
   <i name="EDIFFG">      0.00000010</i>
   <i type="int" name="NFREE">     0</i>
   <i name="POTIM">      0.50000000</i>
   <i name="SMASS">     -3.00000000</i>
   <i name="SCALEE">      1.00000000</i>
  </separator>
  <separator name="ionic md" >
   <i name="TEBEG">      0.00010000</i>
   <i name="TEEND">      0.00010000</i>
   <i type="int" name="NBLOCK">     1</i>
   <i type="int" name="KBLOCK">     1</i>
   <i type="int" name="NPACO">   256</i>
   <i name="APACO">     16.00000000</i>
  </separator>
  <separator name="symmetry" >
   <i type="int" name="ISYM">     2</i>
   <i name="SYMPREC">      0.00001000</i>
  </separator>
  <separator name="dos" >
   <i type="int" name="LORBIT">     0</i>
   <v name="RWIGS">     -1.00000000     -1.00000000     -1.00000000</v>
   <i type="int" name="NEDOS">   301</i>
   <i name="EMIN">     10.00000000</i>
   <i name="EMAX">    -10.00000000</i>
   <i name="EFERMI">      0.00000000</i>
  </separator>
  <separator name="writing" >
   <i type="int" name="NWRITE">     2</i>
   <i type="logical" name="LWAVE"> F  </i>
   <i type="logical" name="LDOWNSAMPLE"> F  </i>
   <i type="logical" name="LCHARG"> F  </i>
   <i type="logical" name="LPARD"> F  </i>
   <i type="logical" name="LVTOT"> F  </i>
   <i type="logical" name="LVHAR"> F  </i>
   <i type="logical" name="LELF"> F  </i>
   <i type="logical" name="LOPTICS"> F  </i>
   <v name="STM">      0.00000000      0.00000000      0.00000000      0.00000000      0.00000000      0.00000000      0.00000000</v>
  </separator>
  <separator name="performance" >
   <i type="int" name="NPAR">     4</i>
   <i type="int" name="NSIM">     4</i>
   <i type="int" name="NBLK">    -1</i>
   <i type="logical" name="LPLANE"> T  </i>
   <i type="logical" name="LSCALAPACK"> F  </i>
   <i type="logical" name="LSCAAWARE"> F  </i>
   <i type="logical" name="LSCALU"> F  </i>
   <i type="logical" name="LASYNC"> F  </i>
   <i type="logical" name="LORBITALREAL"> F  </i>
  </separator>
  <separator name="miscellaneous" >
   <i type="int" name="IDIOT">     3</i>
   <i type="int" name="ISPECIAL">     0</i>
   <i type="logical" name="LMUSIC"> F  </i>
   <v name="POMASS">    114.82000000     74.92200000      1.00000000</v>
   <v name="DARWINR">      0.00000000      0.00000000      0.00000000</v>
   <v name="DARWINV">      1.00000000      1.00000000      1.00000000</v>
   <i type="logical" name="LCORR"> T  </i>
  </separator>
  <i type="logical" name="GGA_COMPAT"> T  </i>
  <i type="logical" name="LBERRY"> F  </i>
  <i type="int" name="ICORELEVEL">     0</i>
  <i type="logical" name="LDAU"> F  </i>
  <i type="int" name="I_CONSTRAINED_M">     0</i>
  <separator name="electronic exchange-correlation" >
   <i type="string" name="GGA">--</i>
   <i type="int" name="VOSKOWN">     0</i>
   <i type="logical" name="LHFCALC"> F  </i>
   <i type="string" name="PRECFOCK"></i>
   <i type="logical" name="LSYMGRAD"> F  </i>
   <i type="logical" name="LHFONE"> F  </i>
   <i type="logical" name="LRHFCALC"> F  </i>
   <i type="logical" name="LTHOMAS"> F  </i>
   <i type="logical" name="LMODELHF"> F  </i>
   <i name="ENCUT4O">     -1.00000000</i>
   <i type="int" name="EXXOEP">     0</i>
   <i type="int" name="FOURORBIT">     0</i>
   <i name="AEXX">      0.00000000</i>
   <i name="HFALPHA">      0.00000000</i>
   <i name="MCALPHA">      0.00000000</i>
   <i name="ALDAX">      1.00000000</i>
   <i name="AGGAX">      1.00000000</i>
   <i name="ALDAC">      1.00000000</i>
   <i name="AGGAC">      1.00000000</i>
   <i type="int" name="NKREDX">     1</i>
   <i type="int" name="NKREDY">     1</i>
   <i type="int" name="NKREDZ">     1</i>
   <i type="logical" name="SHIFTRED"> F  </i>
   <i type="logical" name="ODDONLY"> F  </i>
   <i type="logical" name="EVENONLY"> F  </i>
   <i type="int" name="LMAXFOCK">     0</i>
   <i type="int" name="NMAXFOCKAE">     0</i>
   <i type="logical" name="LFOCKAEDFT"> F  </i>
   <i name="HFSCREEN">      0.00000000</i>
   <i name="HFSCREENC">      0.00000000</i>
   <i type="int" name="NBANDSGWLOW">     0</i>
  </separator>
  <separator name="vdW DFT" >
   <i type="logical" name="LUSE_VDW"> F  </i>
   <i name="Zab_VDW">     -0.84910000</i>
   <i name="PARAM1">      0.12340000</i>
   <i name="PARAM2">      1.00000000</i>
   <i name="PARAM3">      0.00000000</i>
  </separator>
  <separator name="model GW" >
   <i type="int" name="MODEL_GW">     0</i>
   <i name="MODEL_EPS0">     27.43253559</i>
   <i name="MODEL_ALPHA">      1.00000000</i>
  </separator>
  <separator name="linear response parameters" >
   <i type="logical" name="LEPSILON"> F  </i>
   <i type="logical" name="LRPA"> F  </i>
   <i type="logical" name="LNABLA"> F  </i>
   <i type="logical" name="LVEL"> F  </i>
   <i type="int" name="KINTER">     0</i>
   <i name="CSHIFT">      0.10000000</i>
   <i name="OMEGAMAX">     -1.00000000</i>
   <i name="DEG_THRESHOLD">      0.00200000</i>
   <i name="RTIME">     -0.10000000</i>
   <i name="WPLASMAI">      0.00000000</i>
   <v name="DFIELD">      0.00000000      0.00000000      0.00000000</v>
   <v name="WPLASMA">      0.00000000      0.00000000      0.00000000      0.00000000      0.00000000      0.00000000      0.00000000      0.00000000      0.00000000</v>
  </separator>
  <separator name="orbital magnetization" >
   <i type="logical" name="NUCIND"> F  </i>
   <v name="MAGPOS">      0.00000000      0.00000000      0.00000000</v>
   <i type="logical" name="LNICSALL"> T  </i>
   <i type="logical" name="ORBITALMAG"> F  </i>
   <i type="logical" name="LMAGBLOCH"> F  </i>
   <i type="logical" name="LCHIMAG"> F  </i>
   <i type="logical" name="LGAUGE"> T  </i>
   <i type="int" name="MAGATOM">     0</i>
   <v name="MAGDIPOL">      0.00000000      0.00000000      0.00000000</v>
   <v name="AVECCONST">      0.00000000      0.00000000      0.00000000</v>
  </separator>
  <separator name="response functions" >
   <i type="logical" name="LADDER"> F  </i>
   <i type="logical" name="LRPAFORCE"> F  </i>
   <i type="logical" name="LFXC"> F  </i>
   <i type="logical" name="LHARTREE"> T  </i>
   <i type="int" name="IBSE">     0</i>
   <v type="int" name="KPOINT">    -1     0     0     0</v>
   <i type="logical" name="LTCTE"> F  </i>
   <i type="logical" name="LTETE"> F  </i>
   <i type="logical" name="LTRIPLET"> F  </i>
   <i type="logical" name="LFXCEPS"> F  </i>
   <i type="logical" name="LFXHEG"> F  </i>
   <i type="int" name="NATURALO">     2</i>
   <i type="logical" name="L2ORDER"> F  </i>
   <i type="logical" name="LMP2LT"> F  </i>
   <i type="logical" name="LUSEW"> F  </i>
   <i name="ENCUTGW">     -2.00000000</i>
   <i name="ENCUTGWSOFT">     -2.00000000</i>
   <i name="ENCUTLF">     -1.00000000</i>
   <i type="int" name="LMAXMP2">    -1</i>
   <i name="SCISSOR">      0.00000000</i>
   <i type="int" name="NOMEGA">     0</i>
   <i type="int" name="NOMEGAR">     0</i>
   <i type="int" name="NBANDSGW">    -1</i>
   <i type="int" name="NBANDSO">    -1</i>
   <i type="int" name="NBANDSV">    -1</i>
   <i type="int" name="NELM">   300</i>
   <i type="int" name="NELMHF">     1</i>
   <i type="int" name="DIM">     3</i>
   <i type="int" name="ANTIRES">     0</i>
   <i name="OMEGAMAX">    -30.00000000</i>
   <i name="OMEGAMIN">    -30.00000000</i>
   <i name="OMEGATL">   -200.00000000</i>
   <i type="int" name="OMEGAGRID">   140</i>
   <i name="CSHIFT">     -0.10000000</i>
   <i type="logical" name="SELFENERGY"> F  </i>
   <i type="logical" name="LSPECTRAL"> F  </i>
   <i type="logical" name="LSPECTRALGW"> F  </i>
   <i type="logical" name="LSINGLES"> F  </i>
   <i type="logical" name="LFERMIGW"> F  </i>
   <i type="logical" name="ODDONLYGW"> F  </i>
   <i type="logical" name="EVENONLYGW"> F  </i>
   <i type="int" name="NKREDLFX">     1</i>
   <i type="int" name="NKREDLFY">     1</i>
   <i type="int" name="NKREDLFZ">     1</i>
   <i type="int" name="MAXMEM">  2800</i>
   <i type="int" name="TELESCOPE">     0</i>
   <i type="int" name="TAUPAR">     1</i>
   <i type="int" name="OMEGAPAR">    -1</i>
   <i name="LAMBDA">      1.00000000</i>
  </separator>
  <separator name="External order field" >
   <i name="OFIELD_KAPPA">      0.00000000</i>
   <v name="OFIELD_K">      0.00000000      0.00000000      0.00000000</v>
   <i name="OFIELD_Q6_NEAR">      0.00000000</i>
   <i name="OFIELD_Q6_FAR">      0.00000000</i>
   <i name="OFIELD_A">      0.00000000</i>
  </separator>
 </parameters>
 <atominfo>
  <atoms>     172 </atoms>
  <types>       3 </types>
  <array name="atoms" >
   <dimension dim="1">ion</dimension>
   <field type="string">element</field>
   <field type="int">atomtype</field>
   <set>
    <rc><c>In</c><c>   1</c></rc>
    <rc><c>In</c><c>   1</c></rc>
    <rc><c>In</c><c>   1</c></rc>
    <rc><c>In</c><c>   1</c></rc>
    <rc><c>In</c><c>   1</c></rc>
    <rc><c>In</c><c>   1</c></rc>
    <rc><c>In</c><c>   1</c></rc>
    <rc><c>In</c><c>   1</c></rc>
    <rc><c>In</c><c>   1</c></rc>
    <rc><c>In</c><c>   1</c></rc>
    <rc><c>In</c><c>   1</c></rc>
    <rc><c>In</c><c>   1</c></rc>
    <rc><c>In</c><c>   1</c></rc>
    <rc><c>In</c><c>   1</c></rc>
    <rc><c>In</c><c>   1</c></rc>
    <rc><c>In</c><c>   1</c></rc>
    <rc><c>In</c><c>   1</c></rc>
    <rc><c>In</c><c>   1</c></rc>
    <rc><c>In</c><c>   1</c></rc>
    <rc><c>In</c><c>   1</c></rc>
    <rc><c>In</c><c>   1</c></rc>
    <rc><c>In</c><c>   1</c></rc>
    <rc><c>In</c><c>   1</c></rc>
    <rc><c>In</c><c>   1</c></rc>
    <rc><c>In</c><c>   1</c></rc>
    <rc><c>In</c><c>   1</c></rc>
    <rc><c>In</c><c>   1</c></rc>
    <rc><c>In</c><c>   1</c></rc>
    <rc><c>In</c><c>   1</c></rc>
    <rc><c>In</c><c>   1</c></rc>
    <rc><c>In</c><c>   1</c></rc>
    <rc><c>In</c><c>   1</c></rc>
    <rc><c>In</c><c>   1</c></rc>
    <rc><c>In</c><c>   1</c></rc>
    <rc><c>In</c><c>   1</c></rc>
    <rc><c>In</c><c>   1</c></rc>
    <rc><c>In</c><c>   1</c></rc>
    <rc><c>In</c><c>   1</c></rc>
    <rc><c>In</c><c>   1</c></rc>
    <rc><c>In</c><c>   1</c></rc>
    <rc><c>In</c><c>   1</c></rc>
    <rc><c>In</c><c>   1</c></rc>
    <rc><c>In</c><c>   1</c></rc>
    <rc><c>In</c><c>   1</c></rc>
    <rc><c>In</c><c>   1</c></rc>
    <rc><c>In</c><c>   1</c></rc>
    <rc><c>In</c><c>   1</c></rc>
    <rc><c>In</c><c>   1</c></rc>
    <rc><c>In</c><c>   1</c></rc>
    <rc><c>In</c><c>   1</c></rc>
    <rc><c>In</c><c>   1</c></rc>
    <rc><c>In</c><c>   1</c></rc>
    <rc><c>In</c><c>   1</c></rc>
    <rc><c>In</c><c>   1</c></rc>
    <rc><c>In</c><c>   1</c></rc>
    <rc><c>In</c><c>   1</c></rc>
    <rc><c>In</c><c>   1</c></rc>
    <rc><c>In</c><c>   1</c></rc>
    <rc><c>In</c><c>   1</c></rc>
    <rc><c>In</c><c>   1</c></rc>
    <rc><c>In</c><c>   1</c></rc>
    <rc><c>In</c><c>   1</c></rc>
    <rc><c>In</c><c>   1</c></rc>
    <rc><c>In</c><c>   1</c></rc>
    <rc><c>In</c><c>   1</c></rc>
    <rc><c>In</c><c>   1</c></rc>
    <rc><c>In</c><c>   1</c></rc>
    <rc><c>In</c><c>   1</c></rc>
    <rc><c>In</c><c>   1</c></rc>
    <rc><c>In</c><c>   1</c></rc>
    <rc><c>In</c><c>   1</c></rc>
    <rc><c>In</c><c>   1</c></rc>
    <rc><c>In</c><c>   1</c></rc>
    <rc><c>In</c><c>   1</c></rc>
    <rc><c>In</c><c>   1</c></rc>
    <rc><c>In</c><c>   1</c></rc>
    <rc><c>In</c><c>   1</c></rc>
    <rc><c>In</c><c>   1</c></rc>
    <rc><c>In</c><c>   1</c></rc>
    <rc><c>In</c><c>   1</c></rc>
    <rc><c>In</c><c>   1</c></rc>
    <rc><c>In</c><c>   1</c></rc>
    <rc><c>In</c><c>   1</c></rc>
    <rc><c>In</c><c>   1</c></rc>
    <rc><c>In</c><c>   1</c></rc>
    <rc><c>In</c><c>   1</c></rc>
    <rc><c>In</c><c>   1</c></rc>
    <rc><c>In</c><c>   1</c></rc>
    <rc><c>In</c><c>   1</c></rc>
    <rc><c>In</c><c>   1</c></rc>
    <rc><c>In</c><c>   1</c></rc>
    <rc><c>In</c><c>   1</c></rc>
    <rc><c>As</c><c>   2</c></rc>
    <rc><c>As</c><c>   2</c></rc>
    <rc><c>As</c><c>   2</c></rc>
    <rc><c>As</c><c>   2</c></rc>
    <rc><c>As</c><c>   2</c></rc>
    <rc><c>As</c><c>   2</c></rc>
    <rc><c>As</c><c>   2</c></rc>
    <rc><c>As</c><c>   2</c></rc>
    <rc><c>As</c><c>   2</c></rc>
    <rc><c>As</c><c>   2</c></rc>
    <rc><c>As</c><c>   2</c></rc>
    <rc><c>As</c><c>   2</c></rc>
    <rc><c>As</c><c>   2</c></rc>
    <rc><c>As</c><c>   2</c></rc>
    <rc><c>As</c><c>   2</c></rc>
    <rc><c>As</c><c>   2</c></rc>
    <rc><c>As</c><c>   2</c></rc>
    <rc><c>As</c><c>   2</c></rc>
    <rc><c>As</c><c>   2</c></rc>
    <rc><c>As</c><c>   2</c></rc>
    <rc><c>As</c><c>   2</c></rc>
    <rc><c>As</c><c>   2</c></rc>
    <rc><c>As</c><c>   2</c></rc>
    <rc><c>As</c><c>   2</c></rc>
    <rc><c>As</c><c>   2</c></rc>
    <rc><c>As</c><c>   2</c></rc>
    <rc><c>As</c><c>   2</c></rc>
    <rc><c>As</c><c>   2</c></rc>
    <rc><c>As</c><c>   2</c></rc>
    <rc><c>As</c><c>   2</c></rc>
    <rc><c>As</c><c>   2</c></rc>
    <rc><c>As</c><c>   2</c></rc>
    <rc><c>As</c><c>   2</c></rc>
    <rc><c>As</c><c>   2</c></rc>
    <rc><c>As</c><c>   2</c></rc>
    <rc><c>As</c><c>   2</c></rc>
    <rc><c>As</c><c>   2</c></rc>
    <rc><c>As</c><c>   2</c></rc>
    <rc><c>As</c><c>   2</c></rc>
    <rc><c>As</c><c>   2</c></rc>
    <rc><c>As</c><c>   2</c></rc>
    <rc><c>As</c><c>   2</c></rc>
    <rc><c>As</c><c>   2</c></rc>
    <rc><c>As</c><c>   2</c></rc>
    <rc><c>As</c><c>   2</c></rc>
    <rc><c>As</c><c>   2</c></rc>
    <rc><c>As</c><c>   2</c></rc>
    <rc><c>As</c><c>   2</c></rc>
    <rc><c>As</c><c>   2</c></rc>
    <rc><c>As</c><c>   2</c></rc>
    <rc><c>As</c><c>   2</c></rc>
    <rc><c>As</c><c>   2</c></rc>
    <rc><c>As</c><c>   2</c></rc>
    <rc><c>As</c><c>   2</c></rc>
    <rc><c>As</c><c>   2</c></rc>
    <rc><c>As</c><c>   2</c></rc>
    <rc><c>As</c><c>   2</c></rc>
    <rc><c>As</c><c>   2</c></rc>
    <rc><c>As</c><c>   2</c></rc>
    <rc><c>As</c><c>   2</c></rc>
    <rc><c>As</c><c>   2</c></rc>
    <rc><c>As</c><c>   2</c></rc>
    <rc><c>As</c><c>   2</c></rc>
    <rc><c>As</c><c>   2</c></rc>
    <rc><c>H </c><c>   3</c></rc>
    <rc><c>H </c><c>   3</c></rc>
    <rc><c>H </c><c>   3</c></rc>
    <rc><c>H </c><c>   3</c></rc>
    <rc><c>H </c><c>   3</c></rc>
    <rc><c>H </c><c>   3</c></rc>
    <rc><c>H </c><c>   3</c></rc>
    <rc><c>H </c><c>   3</c></rc>
    <rc><c>H </c><c>   3</c></rc>
    <rc><c>H </c><c>   3</c></rc>
    <rc><c>H </c><c>   3</c></rc>
    <rc><c>H </c><c>   3</c></rc>
    <rc><c>H </c><c>   3</c></rc>
    <rc><c>H </c><c>   3</c></rc>
    <rc><c>H </c><c>   3</c></rc>
    <rc><c>H </c><c>   3</c></rc>
   </set>
  </array>
  <array name="atomtypes" >
   <dimension dim="1">type</dimension>
   <field type="int">atomspertype</field>
   <field type="string">element</field>
   <field>mass</field>
   <field>valence</field>
   <field type="string">pseudopotential</field>
   <set>
    <rc><c>  92</c><c>In</c><c>    114.82000000</c><c>     13.00000000</c><c> PAW In_d 11Feb1998                     </c></rc>
    <rc><c>  64</c><c>As</c><c>     74.92200000</c><c>      5.00000000</c><c> PAW As 03Mar1998                       </c></rc>
    <rc><c>  16</c><c>H </c><c>      1.00000000</c><c>      1.25000000</c><c> PAW H1.25 14Feb2000                    </c></rc>
   </set>
  </array>
 </atominfo>
 <structure name="initialpos" >
  <crystal>
   <varray name="basis" >
    <v>      17.03433609       0.00000000       0.00000000 </v>
    <v>      -8.51716805      14.75216779       0.00000000 </v>
    <v>       0.00000000       0.00000000      31.29407310 </v>
   </varray>
   <i name="volume">   7863.99353597 </i>
   <varray name="rec_basis" >
    <v>       0.05870496       0.03389332       0.00000000 </v>
    <v>       0.00000000       0.06778665       0.00000000 </v>
    <v>       0.00000000       0.00000000       0.03195493 </v>
   </varray>
  </crystal>
  <varray name="positions" >
   <v>       0.04806521       0.39944771       0.99523062 </v>
   <v>       0.04889542       0.89944771       0.99568253 </v>
   <v>       0.54889542       0.39944771       0.99568253 </v>
   <v>       0.54889542       0.89944771       0.99568253 </v>
   <v>       0.35055229       0.39944771       0.99568253 </v>
   <v>       0.35055229       0.89944771       0.99568253 </v>
   <v>       0.85055229       0.39944771       0.99568253 </v>
   <v>       0.85055229       0.89944771       0.99568253 </v>
   <v>       0.35055229       0.20110457       0.99568253 </v>
   <v>       0.35055229       0.70110457       0.99568253 </v>
   <v>       0.85055229       0.20110457       0.99568253 </v>
   <v>       0.85055229       0.70110457       0.99568253 </v>
   <v>       0.02661586       0.05323172       0.99490245 </v>
   <v>       0.02661586       0.55323172       0.99490245 </v>
   <v>       0.52661586       0.05323172       0.99490245 </v>
   <v>       0.52661586       0.55323172       0.99490245 </v>
   <v>       0.19676828       0.22338414       0.99490245 </v>
   <v>       0.19676828       0.72338414       0.99490245 </v>
   <v>       0.69676828       0.22338414       0.99490245 </v>
   <v>       0.69676828       0.72338414       0.99490245 </v>
   <v>       0.25000000       0.00000000       0.99493075 </v>
   <v>       0.25000000       0.50000000       0.99493075 </v>
   <v>       0.75000000       0.00000000       0.99493075 </v>
   <v>       0.75000000       0.50000000       0.99493075 </v>
   <v>       0.02661586       0.22338414       0.99490245 </v>
   <v>       0.02661586       0.72338414       0.99490245 </v>
   <v>       0.52661586       0.22338414       0.99490245 </v>
   <v>       0.52661586       0.72338414       0.99490245 </v>
   <v>       0.16687125       0.33374251       0.11114905 </v>
   <v>       0.16687125       0.83374251       0.11114905 </v>
   <v>       0.66687125       0.33374251       0.11114905 </v>
   <v>       0.66687125       0.83374251       0.11114905 </v>
   <v>       0.41625749       0.08312875       0.11114905 </v>
   <v>       0.41625749       0.58312875       0.11114905 </v>
   <v>       0.91625749       0.08312875       0.11114905 </v>
   <v>       0.91625749       0.58312875       0.11114905 </v>
   <v>       0.41666666       0.33333334       0.10951073 </v>
   <v>       0.41666666       0.83333334       0.10951073 </v>
   <v>       0.91666666       0.33333334       0.10951073 </v>
   <v>       0.91666666       0.83333334       0.10951073 </v>
   <v>       0.16687125       0.08312875       0.11114905 </v>
   <v>       0.16687125       0.58312875       0.11114905 </v>
   <v>       0.66687125       0.08312875       0.11114905 </v>
   <v>       0.66687125       0.58312875       0.11114905 </v>
   <v>       0.33333334       0.16666667       0.22222222 </v>
   <v>       0.33333334       0.66666667       0.22222222 </v>
   <v>       0.83333334       0.16666667       0.22222222 </v>
   <v>       0.83333334       0.66666667       0.22222222 </v>
   <v>       0.08333331       0.41666666       0.22222222 </v>
   <v>       0.08333331       0.91666666       0.22222222 </v>
   <v>       0.58333331       0.41666666       0.22222222 </v>
   <v>       0.58333331       0.91666666       0.22222222 </v>
   <v>       0.08333331       0.16666669       0.22222222 </v>
   <v>       0.08333331       0.66666669       0.22222222 </v>
   <v>       0.58333331       0.16666669       0.22222222 </v>
   <v>       0.58333331       0.66666669       0.22222222 </v>
   <v>       0.33333334       0.41666666       0.22222222 </v>
   <v>       0.33333334       0.91666666       0.22222222 </v>
   <v>       0.83333334       0.41666666       0.22222222 </v>
   <v>       0.83333334       0.91666666       0.22222222 </v>
   <v>       0.00000000       0.00000000       0.33333334 </v>
   <v>       0.00000000       0.50000000       0.33333334 </v>
   <v>       0.50000000       0.00000000       0.33333334 </v>
   <v>       0.50000000       0.50000000       0.33333334 </v>
   <v>       0.25000000       0.25000000       0.33333334 </v>
   <v>       0.25000000       0.75000000       0.33333334 </v>
   <v>       0.75000000       0.25000000       0.33333334 </v>
   <v>       0.75000000       0.75000000       0.33333334 </v>
   <v>       0.25000000       0.00000000       0.33333334 </v>
   <v>       0.25000000       0.50000000       0.33333334 </v>
   <v>       0.75000000       0.00000000       0.33333334 </v>
   <v>       0.75000000       0.50000000       0.33333334 </v>
   <v>       0.00000000       0.25000000       0.33333334 </v>
   <v>       0.00000000       0.75000000       0.33333334 </v>
   <v>       0.50000000       0.25000000       0.33333334 </v>
   <v>       0.50000000       0.75000000       0.33333334 </v>
   <v>       0.16666667       0.33333334       0.44444445 </v>
   <v>       0.16666667       0.83333334       0.44444445 </v>
   <v>       0.66666667       0.33333334       0.44444445 </v>
   <v>       0.66666667       0.83333334       0.44444445 </v>
   <v>       0.41666666       0.08333334       0.44444445 </v>
   <v>       0.41666666       0.58333334       0.44444445 </v>
   <v>       0.91666666       0.08333334       0.44444445 </v>
   <v>       0.91666666       0.58333334       0.44444445 </v>
   <v>       0.41666666       0.33333334       0.44444445 </v>
   <v>       0.41666666       0.83333334       0.44444445 </v>
   <v>       0.91666666       0.33333334       0.44444445 </v>
   <v>       0.91666666       0.83333334       0.44444445 </v>
   <v>       0.16666667       0.08333334       0.44444445 </v>
   <v>       0.16666667       0.58333334       0.44444445 </v>
   <v>       0.66666667       0.08333334       0.44444445 </v>
   <v>       0.66666667       0.58333334       0.44444445 </v>
   <v>       0.00060404       0.00120809       0.07927097 </v>
   <v>       0.00060404       0.50120809       0.07927097 </v>
   <v>       0.50060404       0.00120809       0.07927097 </v>
   <v>       0.50060404       0.50120809       0.07927097 </v>
   <v>       0.00060404       0.24939596       0.07927100 </v>
   <v>       0.00060404       0.74939596       0.07927100 </v>
   <v>       0.50060404       0.24939596       0.07927100 </v>
   <v>       0.50060404       0.74939596       0.07927100 </v>
   <v>       0.25000000       0.00000000       0.08094485 </v>
   <v>       0.25000000       0.50000000       0.08094485 </v>
   <v>       0.75000000       0.00000000       0.08094485 </v>
   <v>       0.75000000       0.50000000       0.08094485 </v>
   <v>       0.24879191       0.24939596       0.07927100 </v>
   <v>       0.24879191       0.74939596       0.07927100 </v>
   <v>       0.74879191       0.24939596       0.07927100 </v>
   <v>       0.74879191       0.74939596       0.07927100 </v>
   <v>       0.16660331       0.33320661       0.19452973 </v>
   <v>       0.16660331       0.83320661       0.19452973 </v>
   <v>       0.66660331       0.33320661       0.19452973 </v>
   <v>       0.66660331       0.83320661       0.19452973 </v>
   <v>       0.16660331       0.08339670       0.19452973 </v>
   <v>       0.16660331       0.58339670       0.19452973 </v>
   <v>       0.66660331       0.08339670       0.19452973 </v>
   <v>       0.66660331       0.58339670       0.19452973 </v>
   <v>       0.41666666       0.33333334       0.19342860 </v>
   <v>       0.41666666       0.83333334       0.19342860 </v>
   <v>       0.91666666       0.33333334       0.19342860 </v>
   <v>       0.91666666       0.83333334       0.19342860 </v>
   <v>       0.41679339       0.08339670       0.19452973 </v>
   <v>       0.41679339       0.58339670       0.19452973 </v>
   <v>       0.91679339       0.08339670       0.19452973 </v>
   <v>       0.91679339       0.58339670       0.19452973 </v>
   <v>       0.33333334       0.16666667       0.30555555 </v>
   <v>       0.33333334       0.66666667       0.30555555 </v>
   <v>       0.83333334       0.16666667       0.30555555 </v>
   <v>       0.83333334       0.66666667       0.30555555 </v>
   <v>       0.33333334       0.41666666       0.30555555 </v>
   <v>       0.33333334       0.91666666       0.30555555 </v>
   <v>       0.83333334       0.41666666       0.30555555 </v>
   <v>       0.83333334       0.91666666       0.30555555 </v>
   <v>       0.08333331       0.16666669       0.30555555 </v>
   <v>       0.08333331       0.66666669       0.30555555 </v>
   <v>       0.58333331       0.16666669       0.30555555 </v>
   <v>       0.58333331       0.66666669       0.30555555 </v>
   <v>       0.08333331       0.41666666       0.30555555 </v>
   <v>       0.08333331       0.91666666       0.30555555 </v>
   <v>       0.58333331       0.41666666       0.30555555 </v>
   <v>       0.58333331       0.91666666       0.30555555 </v>
   <v>       0.00000000       0.00000000       0.41666666 </v>
   <v>       0.00000000       0.50000000       0.41666666 </v>
   <v>       0.50000000       0.00000000       0.41666666 </v>
   <v>       0.50000000       0.50000000       0.41666666 </v>
   <v>       0.00000000       0.25000000       0.41666666 </v>
   <v>       0.00000000       0.75000000       0.41666666 </v>
   <v>       0.50000000       0.25000000       0.41666666 </v>
   <v>       0.50000000       0.75000000       0.41666666 </v>
   <v>       0.25000000       0.00000000       0.41666666 </v>
   <v>       0.25000000       0.50000000       0.41666666 </v>
   <v>       0.75000000       0.00000000       0.41666666 </v>
   <v>       0.75000000       0.50000000       0.41666666 </v>
   <v>       0.25000000       0.25000000       0.41666666 </v>
   <v>       0.25000000       0.75000000       0.41666666 </v>
   <v>       0.75000000       0.25000000       0.41666666 </v>
   <v>       0.75000000       0.75000000       0.41666666 </v>
   <v>       0.16666667       0.33333334       0.50007080 </v>
   <v>       0.16666667       0.83333334       0.50007080 </v>
   <v>       0.66666667       0.33333334       0.50007080 </v>
   <v>       0.66666667       0.83333334       0.50007080 </v>
   <v>       0.16666667       0.08333334       0.50007080 </v>
   <v>       0.16666667       0.58333334       0.50007080 </v>
   <v>       0.66666667       0.08333334       0.50007080 </v>
   <v>       0.66666667       0.58333334       0.50007080 </v>
   <v>       0.41666666       0.33333334       0.50007080 </v>
   <v>       0.41666666       0.83333334       0.50007080 </v>
   <v>       0.91666666       0.33333334       0.50007080 </v>
   <v>       0.91666666       0.83333334       0.50007080 </v>
   <v>       0.41666666       0.08333334       0.50007080 </v>
   <v>       0.41666666       0.58333334       0.50007080 </v>
   <v>       0.91666666       0.08333334       0.50007080 </v>
   <v>       0.91666666       0.58333334       0.50007080 </v>
  </varray>
 </structure>
 <calculation>
  <scstep>
   <time name="dav">  471.14  472.06</time>
   <time name="total">  471.87  472.82</time>
   <dipole>
    <v name="dipole">      0.00000000       0.00000000      -0.00133638 </v>
    <i name="Tr[quadrupol]"> -74893.95623219 </i>
    <i name="Echarged">      0.00000000 </i>
    <i name="Edipol_quadrupol">      0.00000000 </i>
    <i name="Eion">      0.00000000 </i>
   </dipole>
   <energy>
    <i name="alphaZ">   1768.57129286 </i>
    <i name="ewald"> 318676.48538462 </i>
    <i name="hartreedc">-467253.52605859 </i>
    <i name="XCdc">   3216.68037379 </i>
    <i name="pawpsdc"> 116446.47017590 </i>
    <i name="pawaedc">-114544.52040592 </i>
    <i name="eentropy">     -0.03981126 </i>
    <i name="bandstr">    625.68234818 </i>
    <i name="atom"> 156698.92270065 </i>
    <i name="e_fr_energy">  15634.72600023 </i>
    <i name="e_wo_entrp">  15634.76581149 </i>
    <i name="e_0_energy">  15634.74590586 </i>
   </energy>
  </scstep>
  <scstep>
   <time name="dav">  503.72  504.55</time>
   <time name="total">  503.74  504.57</time>
   <dipole>
    <v name="dipole">      0.00000000       0.00000000      -0.00133638 </v>
    <i name="Tr[quadrupol]"> -74893.95623219 </i>
    <i name="Echarged">      0.00000000 </i>
    <i name="Edipol_quadrupol">      0.00000000 </i>
    <i name="Eion">      0.00000000 </i>
   </dipole>
   <energy>
    <i name="e_fr_energy">   1767.22964631 </i>
    <i name="e_wo_entrp">   1767.27273986 </i>
    <i name="e_0_energy">   1767.25119308 </i>
   </energy>
  </scstep>
  <scstep>
   <time name="dav">  520.56  521.52</time>
   <time name="total">  520.58  521.53</time>
   <dipole>
    <v name="dipole">      0.00000000       0.00000000      -0.00133638 </v>
    <i name="Tr[quadrupol]"> -74893.95623219 </i>
    <i name="Echarged">      0.00000000 </i>
    <i name="Edipol_quadrupol">      0.00000000 </i>
    <i name="Eion">      0.00000000 </i>
   </dipole>
   <energy>
    <i name="e_fr_energy">   -526.09766451 </i>
    <i name="e_wo_entrp">   -526.08581200 </i>
    <i name="e_0_energy">   -526.09173826 </i>
   </energy>
  </scstep>
  <scstep>
   <time name="dav">  528.84  530.18</time>
   <time name="total">  528.86  530.20</time>
   <dipole>
    <v name="dipole">      0.00000000       0.00000000      -0.00133638 </v>
    <i name="Tr[quadrupol]"> -74893.95623219 </i>
    <i name="Echarged">      0.00000000 </i>
    <i name="Edipol_quadrupol">      0.00000000 </i>
    <i name="Eion">      0.00000000 </i>
   </dipole>
   <energy>
    <i name="e_fr_energy">   -721.56893372 </i>
    <i name="e_wo_entrp">   -721.55150378 </i>
    <i name="e_0_energy">   -721.56021875 </i>
   </energy>
  </scstep>
  <scstep>
   <time name="dav">  552.40  553.31</time>
   <time name="total">  558.39  559.32</time>
   <dipole>
    <v name="dipole">      0.00000000       0.00000000      -0.00133638 </v>
    <i name="Tr[quadrupol]"> -74893.95623219 </i>
    <i name="Echarged">      0.00000000 </i>
    <i name="Edipol_quadrupol">      0.00000000 </i>
    <i name="Eion">      0.00000000 </i>
   </dipole>
   <energy>
    <i name="e_fr_energy">   -730.85644268 </i>
    <i name="e_wo_entrp">   -730.83873594 </i>
    <i name="e_0_energy">   -730.84758931 </i>
   </energy>
  </scstep>
  <scstep>
   <time name="dav">  575.53  576.46</time>
   <time name="total">  582.14  583.09</time>
   <dipole>
    <v name="dipole">      0.00000000       0.00000000       1.73462209 </v>
    <i name="Tr[quadrupol]"> -74910.18969551 </i>
    <i name="Echarged">      0.00000000 </i>
    <i name="Edipol_quadrupol">      0.00000000 </i>
    <i name="Eion">      0.00000000 </i>
   </dipole>
   <energy>
    <i name="e_fr_energy">   -706.93770536 </i>
    <i name="e_wo_entrp">   -706.92818008 </i>
    <i name="e_0_energy">   -706.93294272 </i>
   </energy>
  </scstep>
  <scstep>
   <time name="dav">  616.16  617.20</time>
   <time name="total">  624.04  625.10</time>
   <dipole>
    <v name="dipole">      0.00000000       0.00000000       0.19152416 </v>
    <i name="Tr[quadrupol]"> -74913.57740485 </i>
    <i name="Echarged">      0.00000000 </i>
    <i name="Edipol_quadrupol">      0.00000000 </i>
    <i name="Eion">      0.00000000 </i>
   </dipole>
   <energy>
    <i name="e_fr_energy">   -703.74999426 </i>
    <i name="e_wo_entrp">   -703.73846566 </i>
    <i name="e_0_energy">   -703.74422996 </i>
   </energy>
  </scstep>
  <scstep>
   <time name="dav">  571.89  572.91</time>
   <time name="total">  578.41  579.44</time>
   <dipole>
    <v name="dipole">      0.00000000       0.00000000       1.34756994 </v>
    <i name="Tr[quadrupol]"> -74918.65091781 </i>
    <i name="Echarged">      0.00000000 </i>
    <i name="Edipol_quadrupol">      0.00000000 </i>
    <i name="Eion">      0.00000000 </i>
   </dipole>
   <energy>
    <i name="e_fr_energy">   -703.82040455 </i>
    <i name="e_wo_entrp">   -703.81227631 </i>
    <i name="e_0_energy">   -703.81634043 </i>
   </energy>
  </scstep>
  <scstep>
   <time name="dav">  587.87  588.96</time>
   <time name="total">  595.09  596.19</time>
   <dipole>
    <v name="dipole">      0.00000000       0.00000000       1.12711547 </v>
    <i name="Tr[quadrupol]"> -74924.26806597 </i>
    <i name="Echarged">      0.00000000 </i>
    <i name="Edipol_quadrupol">      0.00000000 </i>
    <i name="Eion">      0.00000000 </i>
   </dipole>
   <energy>
    <i name="e_fr_energy">   -703.67206887 </i>
    <i name="e_wo_entrp">   -703.66464913 </i>
    <i name="e_0_energy">   -703.66835900 </i>
   </energy>
  </scstep>
  <scstep>
   <time name="dav">  610.70  611.97</time>
   <time name="total">  617.22  618.50</time>
   <dipole>
    <v name="dipole">      0.00000000       0.00000000       1.14034695 </v>
    <i name="Tr[quadrupol]"> -74928.40196506 </i>
    <i name="Echarged">      0.00000000 </i>
    <i name="Edipol_quadrupol">      0.00000000 </i>
    <i name="Eion">      0.00000000 </i>
   </dipole>
   <energy>
    <i name="e_fr_energy">   -703.67419901 </i>
    <i name="e_wo_entrp">   -703.66684891 </i>
    <i name="e_0_energy">   -703.67052396 </i>
   </energy>
  </scstep>
  <scstep>
   <time name="dav">  580.62  581.68</time>
   <time name="total">  587.12  588.18</time>
   <dipole>
    <v name="dipole">      0.00000000       0.00000000       1.21163011 </v>
    <i name="Tr[quadrupol]"> -74929.83331612 </i>
    <i name="Echarged">      0.00000000 </i>
    <i name="Edipol_quadrupol">      0.00000000 </i>
    <i name="Eion">      0.00000000 </i>
   </dipole>
   <energy>
    <i name="e_fr_energy">   -703.68197923 </i>
    <i name="e_wo_entrp">   -703.67460552 </i>
    <i name="e_0_energy">   -703.67829238 </i>
   </energy>
  </scstep>
  <scstep>
   <time name="dav">  605.64  606.76</time>
   <time name="total">  612.13  613.26</time>
   <dipole>
    <v name="dipole">      0.00000000       0.00000000       1.23812149 </v>
    <i name="Tr[quadrupol]"> -74932.03699431 </i>
    <i name="Echarged">      0.00000000 </i>
    <i name="Edipol_quadrupol">      0.00000000 </i>
    <i name="Eion">      0.00000000 </i>
   </dipole>
   <energy>
    <i name="e_fr_energy">   -703.68649858 </i>
    <i name="e_wo_entrp">   -703.67907693 </i>
    <i name="e_0_energy">   -703.68278775 </i>
   </energy>
  </scstep>
  <scstep>
   <time name="dav">  598.31  599.50</time>
   <time name="total">  604.85  606.05</time>
   <dipole>
    <v name="dipole">      0.00000000       0.00000000       1.24325532 </v>
    <i name="Tr[quadrupol]"> -74934.47110694 </i>
    <i name="Echarged">      0.00000000 </i>
    <i name="Edipol_quadrupol">      0.00000000 </i>
    <i name="Eion">      0.00000000 </i>
   </dipole>
   <energy>
    <i name="e_fr_energy">   -703.69148202 </i>
    <i name="e_wo_entrp">   -703.68403605 </i>
    <i name="e_0_energy">   -703.68775903 </i>
   </energy>
  </scstep>
  <scstep>
   <time name="dav">  608.02  609.08</time>
   <time name="total">  614.57  615.65</time>
   <dipole>
    <v name="dipole">      0.00000000       0.00000000       1.26550294 </v>
    <i name="Tr[quadrupol]"> -74936.20717823 </i>
    <i name="Echarged">      0.00000000 </i>
    <i name="Edipol_quadrupol">      0.00000000 </i>
    <i name="Eion">      0.00000000 </i>
   </dipole>
   <energy>
    <i name="e_fr_energy">   -703.69671331 </i>
    <i name="e_wo_entrp">   -703.68927543 </i>
    <i name="e_0_energy">   -703.69299437 </i>
   </energy>
  </scstep>
  <scstep>
   <time name="dav">  567.31  568.44</time>
   <time name="total">  573.86  574.99</time>
   <dipole>
    <v name="dipole">      0.00000000       0.00000000       1.28808573 </v>
    <i name="Tr[quadrupol]"> -74938.17874710 </i>
    <i name="Echarged">      0.00000000 </i>
    <i name="Edipol_quadrupol">      0.00000000 </i>
    <i name="Eion">      0.00000000 </i>
   </dipole>
   <energy>
    <i name="e_fr_energy">   -703.70254653 </i>
    <i name="e_wo_entrp">   -703.69510202 </i>
    <i name="e_0_energy">   -703.69882428 </i>
   </energy>
  </scstep>
  <scstep>
   <time name="dav">  571.83  572.88</time>
   <time name="total">  578.40  579.46</time>
   <dipole>
    <v name="dipole">      0.00000000       0.00000000       1.30264537 </v>
    <i name="Tr[quadrupol]"> -74938.95518332 </i>
    <i name="Echarged">      0.00000000 </i>
    <i name="Edipol_quadrupol">      0.00000000 </i>
    <i name="Eion">      0.00000000 </i>
   </dipole>
   <energy>
    <i name="e_fr_energy">   -703.70462566 </i>
    <i name="e_wo_entrp">   -703.69718107 </i>
    <i name="e_0_energy">   -703.70090337 </i>
   </energy>
  </scstep>
  <scstep>
   <time name="dav">  563.66  565.40</time>
   <time name="total">  570.30  572.06</time>
   <dipole>
    <v name="dipole">      0.00000000       0.00000000       1.31902815 </v>
    <i name="Tr[quadrupol]"> -74939.91011847 </i>
    <i name="Echarged">      0.00000000 </i>
    <i name="Edipol_quadrupol">      0.00000000 </i>
    <i name="Eion">      0.00000000 </i>
   </dipole>
   <energy>
    <i name="e_fr_energy">   -703.70564832 </i>
    <i name="e_wo_entrp">   -703.69820479 </i>
    <i name="e_0_energy">   -703.70192656 </i>
   </energy>
  </scstep>
  <scstep>
   <time name="dav">  574.87  575.89</time>
   <time name="total">  582.02  583.06</time>
   <dipole>
    <v name="dipole">      0.00000000       0.00000000       1.33330449 </v>
    <i name="Tr[quadrupol]"> -74940.12794456 </i>
    <i name="Echarged">      0.00000000 </i>
    <i name="Edipol_quadrupol">      0.00000000 </i>
    <i name="Eion">      0.00000000 </i>
   </dipole>
   <energy>
    <i name="e_fr_energy">   -703.70618825 </i>
    <i name="e_wo_entrp">   -703.69874389 </i>
    <i name="e_0_energy">   -703.70246607 </i>
   </energy>
  </scstep>
  <scstep>
   <time name="dav">  609.59  610.61</time>
   <time name="total">  619.32  620.37</time>
   <dipole>
    <v name="dipole">      0.00000000       0.00000000       1.34675780 </v>
    <i name="Tr[quadrupol]"> -74940.33672249 </i>
    <i name="Echarged">      0.00000000 </i>
    <i name="Edipol_quadrupol">      0.00000000 </i>
    <i name="Eion">      0.00000000 </i>
   </dipole>
   <energy>
    <i name="e_fr_energy">   -703.70669925 </i>
    <i name="e_wo_entrp">   -703.69925455 </i>
    <i name="e_0_energy">   -703.70297690 </i>
   </energy>
  </scstep>
  <scstep>
   <time name="dav">  549.00  549.92</time>
   <time name="total">  555.58  556.51</time>
   <dipole>
    <v name="dipole">      0.00000000       0.00000000       1.36458079 </v>
    <i name="Tr[quadrupol]"> -74940.38548457 </i>
    <i name="Echarged">      0.00000000 </i>
    <i name="Edipol_quadrupol">      0.00000000 </i>
    <i name="Eion">      0.00000000 </i>
   </dipole>
   <energy>
    <i name="e_fr_energy">   -703.70714714 </i>
    <i name="e_wo_entrp">   -703.69970068 </i>
    <i name="e_0_energy">   -703.70342391 </i>
   </energy>
  </scstep>
  <scstep>
   <time name="dav">  546.23  547.19</time>
   <time name="total">  554.67  555.64</time>
   <dipole>
    <v name="dipole">      0.00000000       0.00000000       1.37366722 </v>
    <i name="Tr[quadrupol]"> -74940.47297597 </i>
    <i name="Echarged">      0.00000000 </i>
    <i name="Edipol_quadrupol">      0.00000000 </i>
    <i name="Eion">      0.00000000 </i>
   </dipole>
   <energy>
    <i name="e_fr_energy">   -703.70729190 </i>
    <i name="e_wo_entrp">   -703.69984400 </i>
    <i name="e_0_energy">   -703.70356795 </i>
   </energy>
  </scstep>
  <scstep>
   <time name="dav">  523.04  523.90</time>
   <time name="total">  529.56  530.43</time>
   <dipole>
    <v name="dipole">      0.00000000       0.00000000       1.38403172 </v>
    <i name="Tr[quadrupol]"> -74940.59574755 </i>
    <i name="Echarged">      0.00000000 </i>
    <i name="Edipol_quadrupol">      0.00000000 </i>
    <i name="Eion">      0.00000000 </i>
   </dipole>
   <energy>
    <i name="e_fr_energy">   -703.70748353 </i>
    <i name="e_wo_entrp">   -703.70003433 </i>
    <i name="e_0_energy">   -703.70375893 </i>
   </energy>
  </scstep>
  <scstep>
   <time name="dav">  528.46  529.34</time>
   <time name="total">  535.14  536.03</time>
   <dipole>
    <v name="dipole">      0.00000000       0.00000000       1.38713602 </v>
    <i name="Tr[quadrupol]"> -74940.45029694 </i>
    <i name="Echarged">      0.00000000 </i>
    <i name="Edipol_quadrupol">      0.00000000 </i>
    <i name="Eion">      0.00000000 </i>
   </dipole>
   <energy>
    <i name="e_fr_energy">   -703.70756993 </i>
    <i name="e_wo_entrp">   -703.70012115 </i>
    <i name="e_0_energy">   -703.70384554 </i>
   </energy>
  </scstep>
  <scstep>
   <time name="dav">  611.30  612.34</time>
   <time name="total">  619.78  620.85</time>
   <dipole>
    <v name="dipole">      0.00000000       0.00000000       1.39392330 </v>
    <i name="Tr[quadrupol]"> -74942.83419632 </i>
    <i name="Echarged">      0.00000000 </i>
    <i name="Edipol_quadrupol">      0.00000000 </i>
    <i name="Eion">      0.00000000 </i>
   </dipole>
   <energy>
    <i name="e_fr_energy">   -703.70761066 </i>
    <i name="e_wo_entrp">   -703.70016212 </i>
    <i name="e_0_energy">   -703.70388639 </i>
   </energy>
  </scstep>
  <scstep>
   <time name="dav">  504.27  505.07</time>
   <time name="total">  513.35  514.17</time>
   <dipole>
    <v name="dipole">      0.00000000       0.00000000       1.39304969 </v>
    <i name="Tr[quadrupol]"> -74943.75335059 </i>
    <i name="Echarged">      0.00000000 </i>
    <i name="Edipol_quadrupol">      0.00000000 </i>
    <i name="Eion">      0.00000000 </i>
   </dipole>
   <energy>
    <i name="e_fr_energy">   -703.70762077 </i>
    <i name="e_wo_entrp">   -703.70017239 </i>
    <i name="e_0_energy">   -703.70389658 </i>
   </energy>
  </scstep>
  <scstep>
   <time name="dav">  512.05  512.91</time>
   <time name="total">  520.01  520.87</time>
   <dipole>
    <v name="dipole">      0.00000000       0.00000000       1.38979355 </v>
    <i name="Tr[quadrupol]"> -74943.76146327 </i>
    <i name="Echarged">      0.00000000 </i>
    <i name="Edipol_quadrupol">      0.00000000 </i>
    <i name="Eion">      0.00000000 </i>
   </dipole>
   <energy>
    <i name="e_fr_energy">   -703.70763045 </i>
    <i name="e_wo_entrp">   -703.70018173 </i>
    <i name="e_0_energy">   -703.70390609 </i>
   </energy>
  </scstep>
  <scstep>
   <time name="dav">  598.37  599.41</time>
   <time name="total">  604.92  605.97</time>
   <dipole>
    <v name="dipole">      0.00000000       0.00000000       1.38951452 </v>
    <i name="Tr[quadrupol]"> -74943.76146161 </i>
    <i name="Echarged">      0.00000000 </i>
    <i name="Edipol_quadrupol">      0.00000000 </i>
    <i name="Eion">      0.00000000 </i>
   </dipole>
   <energy>
    <i name="e_fr_energy">   -703.70763247 </i>
    <i name="e_wo_entrp">   -703.70018328 </i>
    <i name="e_0_energy">   -703.70390787 </i>
   </energy>
  </scstep>
  <scstep>
   <time name="dav">  600.89  601.93</time>
   <time name="total">  608.20  609.24</time>
   <dipole>
    <v name="dipole">      0.00000000       0.00000000       1.38951008 </v>
    <i name="Tr[quadrupol]"> -74943.76145779 </i>
    <i name="Echarged">      0.00000000 </i>
    <i name="Edipol_quadrupol">      0.00000000 </i>
    <i name="Eion">      0.00000000 </i>
   </dipole>
   <energy>
    <i name="e_fr_energy">   -703.70763268 </i>
    <i name="e_wo_entrp">   -703.70018346 </i>
    <i name="e_0_energy">   -703.70390807 </i>
   </energy>
  </scstep>
  <scstep>
   <time name="dav">  404.44  405.12</time>
   <time name="total">  411.00  411.69</time>
   <dipole>
    <v name="dipole">      0.00000000       0.00000000       1.38957780 </v>
    <i name="Tr[quadrupol]"> -74943.76131865 </i>
    <i name="Echarged">      0.00000000 </i>
    <i name="Edipol_quadrupol">      0.00000000 </i>
    <i name="Eion">      0.00000000 </i>
   </dipole>
   <energy>
    <i name="e_fr_energy">   -703.70763258 </i>
    <i name="e_wo_entrp">   -703.70018338 </i>
    <i name="e_0_energy">   -703.70390798 </i>
   </energy>
  </scstep>
  <scstep>
   <time name="dav">  394.75  395.50</time>
   <time name="total">  402.35  403.10</time>
   <dipole>
    <v name="dipole">      0.00000000       0.00000000       1.38965375 </v>
    <i name="Tr[quadrupol]"> -74943.76115680 </i>
    <i name="Echarged">      0.00000000 </i>
    <i name="Edipol_quadrupol">      0.00000000 </i>
    <i name="Eion">      0.00000000 </i>
   </dipole>
   <energy>
    <i name="e_fr_energy">   -703.70763262 </i>
    <i name="e_wo_entrp">   -703.70018343 </i>
    <i name="e_0_energy">   -703.70390802 </i>
   </energy>
  </scstep>
  <scstep>
   <time name="dav">  500.18  501.04</time>
   <time name="total">  507.86  508.73</time>
   <dipole>
    <v name="dipole">      0.00000000       0.00000000       1.39014914 </v>
    <i name="Tr[quadrupol]"> -74944.12352760 </i>
    <i name="Echarged">      0.00000000 </i>
    <i name="Edipol_quadrupol">      0.00000000 </i>
    <i name="Eion">      0.00000000 </i>
   </dipole>
   <energy>
    <i name="e_fr_energy">   -703.70763323 </i>
    <i name="e_wo_entrp">   -703.70018418 </i>
    <i name="e_0_energy">   -703.70390870 </i>
   </energy>
  </scstep>
  <scstep>
   <time name="dav">  601.82  602.81</time>
   <time name="total">  608.40  609.40</time>
   <dipole>
    <v name="dipole">      0.00000000       0.00000000       1.38979949 </v>
    <i name="Tr[quadrupol]"> -74944.12477643 </i>
    <i name="Echarged">      0.00000000 </i>
    <i name="Edipol_quadrupol">      0.00000000 </i>
    <i name="Eion">      0.00000000 </i>
   </dipole>
   <energy>
    <i name="e_fr_energy">   -703.70763405 </i>
    <i name="e_wo_entrp">   -703.70018490 </i>
    <i name="e_0_energy">   -703.70390948 </i>
   </energy>
  </scstep>
  <scstep>
   <time name="dav">  467.39  468.16</time>
   <time name="total">  468.04  468.81</time>
   <dipole>
    <v name="dipole">      0.00000000       0.00000000       1.38979986 </v>
    <i name="Tr[quadrupol]"> -74944.12477843 </i>
    <i name="Echarged">      0.00000000 </i>
    <i name="Edipol_quadrupol">      0.00000000 </i>
    <i name="Eion">      0.00000000 </i>
   </dipole>
   <energy>
    <i name="alphaZ">   1795.18425528 </i>
    <i name="ewald"> 318676.48538462 </i>
    <i name="hartreedc">-467513.60763105 </i>
    <i name="XCdc">   3224.69035780 </i>
    <i name="pawpsdc"> 119805.10342249 </i>
    <i name="pawaedc">-118011.30976889 </i>
    <i name="eentropy">     -0.00744914 </i>
    <i name="bandstr"> -15379.16890583 </i>
    <i name="atom"> 156698.92270065 </i>
    <i name="e_fr_energy">   -703.70763405 </i>
    <i name="e_wo_entrp">   -703.70018491 </i>
    <i name="e_0_energy">   -703.70390948 </i>
   </energy>
  </scstep>
  <structure>
   <crystal>
    <varray name="basis" >
     <v>      17.03433609       0.00000000       0.00000000 </v>
     <v>      -8.51716805      14.75216779       0.00000000 </v>
     <v>       0.00000000       0.00000000      31.29407310 </v>
    </varray>
    <i name="volume">   7863.99353597 </i>
    <varray name="rec_basis" >
     <v>       0.05870496       0.03389332       0.00000000 </v>
     <v>       0.00000000       0.06778665       0.00000000 </v>
     <v>       0.00000000       0.00000000       0.03195493 </v>
    </varray>
   </crystal>
   <varray name="positions" >
    <v>       0.04806521       0.39944771       0.99523062 </v>
    <v>       0.04889542       0.89944771       0.99568253 </v>
    <v>       0.54889542       0.39944771       0.99568253 </v>
    <v>       0.54889542       0.89944771       0.99568253 </v>
    <v>       0.35055229       0.39944771       0.99568253 </v>
    <v>       0.35055229       0.89944771       0.99568253 </v>
    <v>       0.85055229       0.39944771       0.99568253 </v>
    <v>       0.85055229       0.89944771       0.99568253 </v>
    <v>       0.35055229       0.20110457       0.99568253 </v>
    <v>       0.35055229       0.70110457       0.99568253 </v>
    <v>       0.85055229       0.20110457       0.99568253 </v>
    <v>       0.85055229       0.70110457       0.99568253 </v>
    <v>       0.02661586       0.05323172       0.99490245 </v>
    <v>       0.02661586       0.55323172       0.99490245 </v>
    <v>       0.52661586       0.05323172       0.99490245 </v>
    <v>       0.52661586       0.55323172       0.99490245 </v>
    <v>       0.19676828       0.22338414       0.99490245 </v>
    <v>       0.19676828       0.72338414       0.99490245 </v>
    <v>       0.69676828       0.22338414       0.99490245 </v>
    <v>       0.69676828       0.72338414       0.99490245 </v>
    <v>       0.25000000       0.00000000       0.99493075 </v>
    <v>       0.25000000       0.50000000       0.99493075 </v>
    <v>       0.75000000       0.00000000       0.99493075 </v>
    <v>       0.75000000       0.50000000       0.99493075 </v>
    <v>       0.02661586       0.22338414       0.99490245 </v>
    <v>       0.02661586       0.72338414       0.99490245 </v>
    <v>       0.52661586       0.22338414       0.99490245 </v>
    <v>       0.52661586       0.72338414       0.99490245 </v>
    <v>       0.16687125       0.33374251       0.11114905 </v>
    <v>       0.16687125       0.83374251       0.11114905 </v>
    <v>       0.66687125       0.33374251       0.11114905 </v>
    <v>       0.66687125       0.83374251       0.11114905 </v>
    <v>       0.41625749       0.08312875       0.11114905 </v>
    <v>       0.41625749       0.58312875       0.11114905 </v>
    <v>       0.91625749       0.08312875       0.11114905 </v>
    <v>       0.91625749       0.58312875       0.11114905 </v>
    <v>       0.41666666       0.33333334       0.10951073 </v>
    <v>       0.41666666       0.83333334       0.10951073 </v>
    <v>       0.91666666       0.33333334       0.10951073 </v>
    <v>       0.91666666       0.83333334       0.10951073 </v>
    <v>       0.16687125       0.08312875       0.11114905 </v>
    <v>       0.16687125       0.58312875       0.11114905 </v>
    <v>       0.66687125       0.08312875       0.11114905 </v>
    <v>       0.66687125       0.58312875       0.11114905 </v>
    <v>       0.33333334       0.16666667       0.22222222 </v>
    <v>       0.33333334       0.66666667       0.22222222 </v>
    <v>       0.83333334       0.16666667       0.22222222 </v>
    <v>       0.83333334       0.66666667       0.22222222 </v>
    <v>       0.08333331       0.41666666       0.22222222 </v>
    <v>       0.08333331       0.91666666       0.22222222 </v>
    <v>       0.58333331       0.41666666       0.22222222 </v>
    <v>       0.58333331       0.91666666       0.22222222 </v>
    <v>       0.08333331       0.16666669       0.22222222 </v>
    <v>       0.08333331       0.66666669       0.22222222 </v>
    <v>       0.58333331       0.16666669       0.22222222 </v>
    <v>       0.58333331       0.66666669       0.22222222 </v>
    <v>       0.33333334       0.41666666       0.22222222 </v>
    <v>       0.33333334       0.91666666       0.22222222 </v>
    <v>       0.83333334       0.41666666       0.22222222 </v>
    <v>       0.83333334       0.91666666       0.22222222 </v>
    <v>       0.00000000       0.00000000       0.33333334 </v>
    <v>       0.00000000       0.50000000       0.33333334 </v>
    <v>       0.50000000       0.00000000       0.33333334 </v>
    <v>       0.50000000       0.50000000       0.33333334 </v>
    <v>       0.25000000       0.25000000       0.33333334 </v>
    <v>       0.25000000       0.75000000       0.33333334 </v>
    <v>       0.75000000       0.25000000       0.33333334 </v>
    <v>       0.75000000       0.75000000       0.33333334 </v>
    <v>       0.25000000       0.00000000       0.33333334 </v>
    <v>       0.25000000       0.50000000       0.33333334 </v>
    <v>       0.75000000       0.00000000       0.33333334 </v>
    <v>       0.75000000       0.50000000       0.33333334 </v>
    <v>       0.00000000       0.25000000       0.33333334 </v>
    <v>       0.00000000       0.75000000       0.33333334 </v>
    <v>       0.50000000       0.25000000       0.33333334 </v>
    <v>       0.50000000       0.75000000       0.33333334 </v>
    <v>       0.16666667       0.33333334       0.44444445 </v>
    <v>       0.16666667       0.83333334       0.44444445 </v>
    <v>       0.66666667       0.33333334       0.44444445 </v>
    <v>       0.66666667       0.83333334       0.44444445 </v>
    <v>       0.41666666       0.08333334       0.44444445 </v>
    <v>       0.41666666       0.58333334       0.44444445 </v>
    <v>       0.91666666       0.08333334       0.44444445 </v>
    <v>       0.91666666       0.58333334       0.44444445 </v>
    <v>       0.41666666       0.33333334       0.44444445 </v>
    <v>       0.41666666       0.83333334       0.44444445 </v>
    <v>       0.91666666       0.33333334       0.44444445 </v>
    <v>       0.91666666       0.83333334       0.44444445 </v>
    <v>       0.16666667       0.08333334       0.44444445 </v>
    <v>       0.16666667       0.58333334       0.44444445 </v>
    <v>       0.66666667       0.08333334       0.44444445 </v>
    <v>       0.66666667       0.58333334       0.44444445 </v>
    <v>       0.00060404       0.00120809       0.07927097 </v>
    <v>       0.00060404       0.50120809       0.07927097 </v>
    <v>       0.50060404       0.00120809       0.07927097 </v>
    <v>       0.50060404       0.50120809       0.07927097 </v>
    <v>       0.00060404       0.24939596       0.07927100 </v>
    <v>       0.00060404       0.74939596       0.07927100 </v>
    <v>       0.50060404       0.24939596       0.07927100 </v>
    <v>       0.50060404       0.74939596       0.07927100 </v>
    <v>       0.25000000       0.00000000       0.08094485 </v>
    <v>       0.25000000       0.50000000       0.08094485 </v>
    <v>       0.75000000       0.00000000       0.08094485 </v>
    <v>       0.75000000       0.50000000       0.08094485 </v>
    <v>       0.24879191       0.24939596       0.07927100 </v>
    <v>       0.24879191       0.74939596       0.07927100 </v>
    <v>       0.74879191       0.24939596       0.07927100 </v>
[...]
       <r>    -6.2421    17.6149  1058.4014 </r>
       <r>    -6.1715    18.5417  1059.7103 </r>
       <r>    -6.1009     1.4471  1059.8125 </r>
       <r>    -6.0303    12.8622  1060.7205 </r>
       <r>    -5.9597    65.4859  1065.3433 </r>
       <r>    -5.8891    89.1024  1071.6334 </r>
       <r>    -5.8185    63.0433  1076.0838 </r>
       <r>    -5.7479    43.9858  1079.1889 </r>
       <r>    -5.6773    58.7040  1083.3331 </r>
       <r>    -5.6067    71.8868  1088.4078 </r>
       <r>    -5.5361    87.8757  1094.6112 </r>
       <r>    -5.4656    90.8644  1101.0257 </r>
       <r>    -5.3950    65.4606  1105.6468 </r>
       <r>    -5.3244   112.8051  1113.6101 </r>
       <r>    -5.2538   128.3310  1122.6694 </r>
       <r>    -5.1832   109.4260  1130.3942 </r>
       <r>    -5.1126   102.9616  1137.6626 </r>
       <r>    -5.0420    69.0227  1142.5351 </r>
       <r>    -4.9714    47.1402  1145.8629 </r>
       <r>    -4.9008    79.7626  1151.4936 </r>
       <r>    -4.8302    77.4432  1156.9606 </r>
       <r>    -4.7596    58.6169  1161.0986 </r>
       <r>    -4.6890    77.8923  1166.5973 </r>
       <r>    -4.6184    65.0577  1171.1899 </r>
       <r>    -4.5478    68.7344  1176.0421 </r>
       <r>    -4.4772    39.7831  1178.8506 </r>
       <r>    -4.4067    12.2897  1179.7181 </r>
       <r>    -4.3361    47.0913  1183.0425 </r>
       <r>    -4.2655    25.9855  1184.8769 </r>
       <r>    -4.1949    20.8541  1186.3491 </r>
       <r>    -4.1243    12.7487  1187.2490 </r>
       <r>    -4.0537    15.2900  1188.3284 </r>
       <r>    -3.9831    13.9593  1189.3138 </r>
       <r>    -3.9125     4.9456  1189.6630 </r>
       <r>    -3.8419    26.1884  1191.5117 </r>
       <r>    -3.7713    58.3102  1195.6280 </r>
       <r>    -3.7007    41.3374  1198.5462 </r>
       <r>    -3.6301    39.6013  1201.3418 </r>
       <r>    -3.5595    20.2371  1202.7704 </r>
       <r>    -3.4889    18.6654  1204.0880 </r>
       <r>    -3.4183    27.4871  1206.0284 </r>
       <r>    -3.3477    29.2824  1208.0956 </r>
       <r>    -3.2772    23.0183  1209.7205 </r>
       <r>    -3.2066    52.0453  1213.3946 </r>
       <r>    -3.1360   139.3635  1223.2327 </r>
       <r>    -3.0654    99.2911  1230.2420 </r>
       <r>    -2.9948    74.4150  1235.4953 </r>
       <r>    -2.9242    23.3398  1237.1429 </r>
       <r>    -2.8536    40.8531  1240.0269 </r>
       <r>    -2.7830    42.4785  1243.0256 </r>
       <r>    -2.7124    61.4381  1247.3627 </r>
       <r>    -2.6418    56.0666  1251.3206 </r>
       <r>    -2.5712    71.0341  1256.3352 </r>
       <r>    -2.5006    94.2058  1262.9855 </r>
       <r>    -2.4300   133.5531  1272.4135 </r>
       <r>    -2.3594   138.5307  1282.1928 </r>
       <r>    -2.2888   108.0374  1289.8196 </r>
       <r>    -2.2183    68.2182  1294.6353 </r>
       <r>    -2.1477    70.0156  1299.5780 </r>
       <r>    -2.0771    87.0561  1305.7236 </r>
       <r>    -2.0065    98.6031  1312.6843 </r>
       <r>    -1.9359   123.3353  1321.3910 </r>
       <r>    -1.8653   150.2736  1331.9993 </r>
       <r>    -1.7947   139.4915  1341.8465 </r>
       <r>    -1.7241   141.6500  1351.8460 </r>
       <r>    -1.6535   112.7049  1359.8023 </r>
       <r>    -1.5829   120.3757  1368.3000 </r>
       <r>    -1.5123   162.7861  1379.7917 </r>
       <r>    -1.4417   132.3374  1389.1338 </r>
       <r>    -1.3711    58.1570  1393.2393 </r>
       <r>    -1.3005    98.9046  1400.2213 </r>
       <r>    -1.2299   109.8361  1407.9750 </r>
       <r>    -1.1594   120.9112  1416.5106 </r>
       <r>    -1.0888   129.2116  1425.6321 </r>
       <r>    -1.0182   138.3762  1435.4005 </r>
       <r>    -0.9476   112.5400  1443.3451 </r>
       <r>    -0.8770   104.2142  1450.7020 </r>
       <r>    -0.8064    89.9138  1457.0493 </r>
       <r>    -0.7358    97.5223  1463.9337 </r>
       <r>    -0.6652   108.7028  1471.6074 </r>
       <r>    -0.5946   128.3407  1480.6675 </r>
       <r>    -0.5240   114.5913  1488.7569 </r>
       <r>    -0.4534    96.4149  1495.5631 </r>
       <r>    -0.3828    63.4838  1500.0447 </r>
       <r>    -0.3122   100.0050  1507.1044 </r>
       <r>    -0.2416    73.0166  1512.2589 </r>
       <r>    -0.1710    45.4039  1515.4641 </r>
       <r>    -0.1004    34.1635  1517.8758 </r>
       <r>    -0.0299    45.1373  1521.0622 </r>
       <r>     0.0407    26.3725  1522.9239 </r>
       <r>     0.1113    31.9830  1525.1817 </r>
       <r>     0.1819    18.4585  1526.4848 </r>
       <r>     0.2525    22.1056  1528.0453 </r>
       <r>     0.3231    20.1725  1529.4693 </r>
       <r>     0.3937    24.9693  1531.2320 </r>
       <r>     0.4643    18.1483  1532.5131 </r>
       <r>     0.5349    21.9069  1534.0596 </r>
       <r>     0.6055    14.8024  1535.1046 </r>
       <r>     0.6761     4.2354  1535.4036 </r>
       <r>     0.7467     2.1052  1535.5522 </r>
       <r>     0.8173     0.6535  1535.5983 </r>
       <r>     0.8879     4.4183  1535.9102 </r>
       <r>     0.9585     9.9617  1536.6134 </r>
       <r>     1.0290    27.7494  1538.5724 </r>
       <r>     1.0996    30.8997  1540.7537 </r>
       <r>     1.1702    18.5553  1542.0636 </r>
       <r>     1.2408    10.6379  1542.8145 </r>
       <r>     1.3114     1.5279  1542.9224 </r>
       <r>     1.3820    13.2717  1543.8593 </r>
       <r>     1.4526    60.0137  1548.0959 </r>
       <r>     1.5232    51.8515  1551.7562 </r>
       <r>     1.5938    17.3371  1552.9801 </r>
       <r>     1.6644    30.6822  1555.1461 </r>
       <r>     1.7350    49.4676  1558.6382 </r>
       <r>     1.8056    59.2754  1562.8226 </r>
       <r>     1.8762    53.3622  1566.5896 </r>
       <r>     1.9468    57.3230  1570.6363 </r>
       <r>     2.0174    35.2300  1573.1233 </r>
       <r>     2.0879    42.9441  1576.1549 </r>
       <r>     2.1585    32.6910  1578.4626 </r>
       <r>     2.2291    71.5910  1583.5165 </r>
       <r>     2.2997    86.1624  1589.5990 </r>
       <r>     2.3703   110.1609  1597.3756 </r>
       <r>     2.4409   118.3826  1605.7327 </r>
       <r>     2.5115    85.9962  1611.8034 </r>
       <r>     2.5821   103.2787  1619.0942 </r>
       <r>     2.6527   118.7450  1627.4769 </r>
       <r>     2.7233    96.1276  1634.2628 </r>
       <r>     2.7939   115.1658  1642.3928 </r>
       <r>     2.8645   120.2751  1650.8834 </r>
       <r>     2.9351   120.0923  1659.3612 </r>
       <r>     3.0057   115.2333  1667.4959 </r>
       <r>     3.0763   161.8248  1678.9197 </r>
       <r>     3.1468   108.4056  1686.5724 </r>
       <r>     3.2174    97.8164  1693.4776 </r>
       <r>     3.2880    78.9312  1699.0496 </r>
       <r>     3.3586    86.8624  1705.1815 </r>
       <r>     3.4292   111.5812  1713.0584 </r>
       <r>     3.4998    87.7954  1719.2562 </r>
       <r>     3.5704    74.3052  1724.5017 </r>
       <r>     3.6410    82.2900  1730.3108 </r>
       <r>     3.7116    57.5616  1734.3743 </r>
       <r>     3.7822    73.4713  1739.5609 </r>
       <r>     3.8528    81.5539  1745.3181 </r>
       <r>     3.9234   107.6657  1752.9186 </r>
       <r>     3.9940   119.9836  1761.3886 </r>
       <r>     4.0646   103.7196  1768.7105 </r>
       <r>     4.1352    86.7671  1774.8357 </r>
       <r>     4.2058    83.5139  1780.7313 </r>
       <r>     4.2763    97.0861  1787.5849 </r>
       <r>     4.3469    62.8474  1792.0215 </r>
       <r>     4.4175    90.0265  1798.3768 </r>
       <r>     4.4881    99.4604  1805.3981 </r>
       <r>     4.5587    81.9801  1811.1853 </r>
       <r>     4.6293   129.2668  1820.3107 </r>
       <r>     4.6999   131.7002  1829.6079 </r>
       <r>     4.7705   124.3537  1838.3864 </r>
       <r>     4.8411   105.9627  1845.8667 </r>
       <r>     4.9117    28.6451  1847.8889 </r>
       <r>     4.9823     1.5690  1847.9996 </r>
       <r>     5.0529     0.0052  1848.0000 </r>
       <r>     5.1235     0.0000  1848.0000 </r>
       <r>     5.1941     0.0000  1848.0000 </r>
       <r>     5.2647     0.0000  1848.0000 </r>
       <r>     5.3352     0.0000  1848.0000 </r>
       <r>     5.4058     0.0000  1848.0000 </r>
       <r>     5.4764     0.0000  1848.0000 </r>
       <r>     5.5470     0.0000  1848.0000 </r>
       <r>     5.6176     0.0000  1848.0000 </r>
       <r>     5.6882     0.0000  1848.0000 </r>
       <r>     5.7588     0.0000  1848.0000 </r>
       <r>     5.8294     0.0000  1848.0000 </r>
      </set>
     </set>
    </array>
   </total>
  </dos>
 </calculation>
 <structure name="finalpos" >
  <crystal>
   <varray name="basis" >
    <v>      17.03433609       0.00000000       0.00000000 </v>
    <v>      -8.51716805      14.75216779       0.00000000 </v>
    <v>       0.00000000       0.00000000      31.29407310 </v>
   </varray>
   <i name="volume">   7863.99353597 </i>
   <varray name="rec_basis" >
    <v>       0.05870496       0.03389332       0.00000000 </v>
    <v>       0.00000000       0.06778665       0.00000000 </v>
    <v>       0.00000000       0.00000000       0.03195493 </v>
   </varray>
  </crystal>
  <varray name="positions" >
   <v>       0.04806521       0.39944771       0.99523062 </v>
   <v>       0.04889542       0.89944771       0.99568253 </v>
   <v>       0.54889542       0.39944771       0.99568253 </v>
   <v>       0.54889542       0.89944771       0.99568253 </v>
   <v>       0.35055229       0.39944771       0.99568253 </v>
   <v>       0.35055229       0.89944771       0.99568253 </v>
   <v>       0.85055229       0.39944771       0.99568253 </v>
   <v>       0.85055229       0.89944771       0.99568253 </v>
   <v>       0.35055229       0.20110457       0.99568253 </v>
   <v>       0.35055229       0.70110457       0.99568253 </v>
   <v>       0.85055229       0.20110457       0.99568253 </v>
   <v>       0.85055229       0.70110457       0.99568253 </v>
   <v>       0.02661586       0.05323172       0.99490245 </v>
   <v>       0.02661586       0.55323172       0.99490245 </v>
   <v>       0.52661586       0.05323172       0.99490245 </v>
   <v>       0.52661586       0.55323172       0.99490245 </v>
   <v>       0.19676828       0.22338414       0.99490245 </v>
   <v>       0.19676828       0.72338414       0.99490245 </v>
   <v>       0.69676828       0.22338414       0.99490245 </v>
   <v>       0.69676828       0.72338414       0.99490245 </v>
   <v>       0.25000000       0.00000000       0.99493075 </v>
   <v>       0.25000000       0.50000000       0.99493075 </v>
   <v>       0.75000000       0.00000000       0.99493075 </v>
   <v>       0.75000000       0.50000000       0.99493075 </v>
   <v>       0.02661586       0.22338414       0.99490245 </v>
   <v>       0.02661586       0.72338414       0.99490245 </v>
   <v>       0.52661586       0.22338414       0.99490245 </v>
   <v>       0.52661586       0.72338414       0.99490245 </v>
   <v>       0.16687125       0.33374251       0.11114905 </v>
   <v>       0.16687125       0.83374251       0.11114905 </v>
   <v>       0.66687125       0.33374251       0.11114905 </v>
   <v>       0.66687125       0.83374251       0.11114905 </v>
   <v>       0.41625749       0.08312875       0.11114905 </v>
   <v>       0.41625749       0.58312875       0.11114905 </v>
   <v>       0.91625749       0.08312875       0.11114905 </v>
   <v>       0.91625749       0.58312875       0.11114905 </v>
   <v>       0.41666666       0.33333334       0.10951073 </v>
   <v>       0.41666666       0.83333334       0.10951073 </v>
   <v>       0.91666666       0.33333334       0.10951073 </v>
   <v>       0.91666666       0.83333334       0.10951073 </v>
   <v>       0.16687125       0.08312875       0.11114905 </v>
   <v>       0.16687125       0.58312875       0.11114905 </v>
   <v>       0.66687125       0.08312875       0.11114905 </v>
   <v>       0.66687125       0.58312875       0.11114905 </v>
   <v>       0.33333334       0.16666667       0.22222222 </v>
   <v>       0.33333334       0.66666667       0.22222222 </v>
   <v>       0.83333334       0.16666667       0.22222222 </v>
   <v>       0.83333334       0.66666667       0.22222222 </v>
   <v>       0.08333331       0.41666666       0.22222222 </v>
   <v>       0.08333331       0.91666666       0.22222222 </v>
   <v>       0.58333331       0.41666666       0.22222222 </v>
   <v>       0.58333331       0.91666666       0.22222222 </v>
   <v>       0.08333331       0.16666669       0.22222222 </v>
   <v>       0.08333331       0.66666669       0.22222222 </v>
   <v>       0.58333331       0.16666669       0.22222222 </v>
   <v>       0.58333331       0.66666669       0.22222222 </v>
   <v>       0.33333334       0.41666666       0.22222222 </v>
   <v>       0.33333334       0.91666666       0.22222222 </v>
   <v>       0.83333334       0.41666666       0.22222222 </v>
   <v>       0.83333334       0.91666666       0.22222222 </v>
   <v>       0.00000000       0.00000000       0.33333334 </v>
   <v>       0.00000000       0.50000000       0.33333334 </v>
   <v>       0.50000000       0.00000000       0.33333334 </v>
   <v>       0.50000000       0.50000000       0.33333334 </v>
   <v>       0.25000000       0.25000000       0.33333334 </v>
   <v>       0.25000000       0.75000000       0.33333334 </v>
   <v>       0.75000000       0.25000000       0.33333334 </v>
   <v>       0.75000000       0.75000000       0.33333334 </v>
   <v>       0.25000000       0.00000000       0.33333334 </v>
   <v>       0.25000000       0.50000000       0.33333334 </v>
   <v>       0.75000000       0.00000000       0.33333334 </v>
   <v>       0.75000000       0.50000000       0.33333334 </v>
   <v>       0.00000000       0.25000000       0.33333334 </v>
   <v>       0.00000000       0.75000000       0.33333334 </v>
   <v>       0.50000000       0.25000000       0.33333334 </v>
   <v>       0.50000000       0.75000000       0.33333334 </v>
   <v>       0.16666667       0.33333334       0.44444445 </v>
   <v>       0.16666667       0.83333334       0.44444445 </v>
   <v>       0.66666667       0.33333334       0.44444445 </v>
   <v>       0.66666667       0.83333334       0.44444445 </v>
   <v>       0.41666666       0.08333334       0.44444445 </v>
   <v>       0.41666666       0.58333334       0.44444445 </v>
   <v>       0.91666666       0.08333334       0.44444445 </v>
   <v>       0.91666666       0.58333334       0.44444445 </v>
   <v>       0.41666666       0.33333334       0.44444445 </v>
   <v>       0.41666666       0.83333334       0.44444445 </v>
   <v>       0.91666666       0.33333334       0.44444445 </v>
   <v>       0.91666666       0.83333334       0.44444445 </v>
   <v>       0.16666667       0.08333334       0.44444445 </v>
   <v>       0.16666667       0.58333334       0.44444445 </v>
   <v>       0.66666667       0.08333334       0.44444445 </v>
   <v>       0.66666667       0.58333334       0.44444445 </v>
   <v>       0.00060404       0.00120809       0.07927097 </v>
   <v>       0.00060404       0.50120809       0.07927097 </v>
   <v>       0.50060404       0.00120809       0.07927097 </v>
   <v>       0.50060404       0.50120809       0.07927097 </v>
   <v>       0.00060404       0.24939596       0.07927100 </v>
   <v>       0.00060404       0.74939596       0.07927100 </v>
   <v>       0.50060404       0.24939596       0.07927100 </v>
   <v>       0.50060404       0.74939596       0.07927100 </v>
   <v>       0.25000000       0.00000000       0.08094485 </v>
   <v>       0.25000000       0.50000000       0.08094485 </v>
   <v>       0.75000000       0.00000000       0.08094485 </v>
   <v>       0.75000000       0.50000000       0.08094485 </v>
   <v>       0.24879191       0.24939596       0.07927100 </v>
   <v>       0.24879191       0.74939596       0.07927100 </v>
   <v>       0.74879191       0.24939596       0.07927100 </v>
   <v>       0.74879191       0.74939596       0.07927100 </v>
   <v>       0.16660331       0.33320661       0.19452973 </v>
   <v>       0.16660331       0.83320661       0.19452973 </v>
   <v>       0.66660331       0.33320661       0.19452973 </v>
   <v>       0.66660331       0.83320661       0.19452973 </v>
   <v>       0.16660331       0.08339670       0.19452973 </v>
   <v>       0.16660331       0.58339670       0.19452973 </v>
   <v>       0.66660331       0.08339670       0.19452973 </v>
   <v>       0.66660331       0.58339670       0.19452973 </v>
   <v>       0.41666666       0.33333334       0.19342860 </v>
   <v>       0.41666666       0.83333334       0.19342860 </v>
   <v>       0.91666666       0.33333334       0.19342860 </v>
   <v>       0.91666666       0.83333334       0.19342860 </v>
   <v>       0.41679339       0.08339670       0.19452973 </v>
   <v>       0.41679339       0.58339670       0.19452973 </v>
   <v>       0.91679339       0.08339670       0.19452973 </v>
   <v>       0.91679339       0.58339670       0.19452973 </v>
   <v>       0.33333334       0.16666667       0.30555555 </v>
   <v>       0.33333334       0.66666667       0.30555555 </v>
   <v>       0.83333334       0.16666667       0.30555555 </v>
   <v>       0.83333334       0.66666667       0.30555555 </v>
   <v>       0.33333334       0.41666666       0.30555555 </v>
   <v>       0.33333334       0.91666666       0.30555555 </v>
   <v>       0.83333334       0.41666666       0.30555555 </v>
   <v>       0.83333334       0.91666666       0.30555555 </v>
   <v>       0.08333331       0.16666669       0.30555555 </v>
   <v>       0.08333331       0.66666669       0.30555555 </v>
   <v>       0.58333331       0.16666669       0.30555555 </v>
   <v>       0.58333331       0.66666669       0.30555555 </v>
   <v>       0.08333331       0.41666666       0.30555555 </v>
   <v>       0.08333331       0.91666666       0.30555555 </v>
   <v>       0.58333331       0.41666666       0.30555555 </v>
   <v>       0.58333331       0.91666666       0.30555555 </v>
   <v>       0.00000000       0.00000000       0.41666666 </v>
   <v>       0.00000000       0.50000000       0.41666666 </v>
   <v>       0.50000000       0.00000000       0.41666666 </v>
   <v>       0.50000000       0.50000000       0.41666666 </v>
   <v>       0.00000000       0.25000000       0.41666666 </v>
   <v>       0.00000000       0.75000000       0.41666666 </v>
   <v>       0.50000000       0.25000000       0.41666666 </v>
   <v>       0.50000000       0.75000000       0.41666666 </v>
   <v>       0.25000000       0.00000000       0.41666666 </v>
   <v>       0.25000000       0.50000000       0.41666666 </v>
   <v>       0.75000000       0.00000000       0.41666666 </v>
   <v>       0.75000000       0.50000000       0.41666666 </v>
   <v>       0.25000000       0.25000000       0.41666666 </v>
   <v>       0.25000000       0.75000000       0.41666666 </v>
   <v>       0.75000000       0.25000000       0.41666666 </v>
   <v>       0.75000000       0.75000000       0.41666666 </v>
   <v>       0.16666667       0.33333334       0.50007080 </v>
   <v>       0.16666667       0.83333334       0.50007080 </v>
   <v>       0.66666667       0.33333334       0.50007080 </v>
   <v>       0.66666667       0.83333334       0.50007080 </v>
   <v>       0.16666667       0.08333334       0.50007080 </v>
   <v>       0.16666667       0.58333334       0.50007080 </v>
   <v>       0.66666667       0.08333334       0.50007080 </v>
   <v>       0.66666667       0.58333334       0.50007080 </v>
   <v>       0.41666666       0.33333334       0.50007080 </v>
   <v>       0.41666666       0.83333334       0.50007080 </v>
   <v>       0.91666666       0.33333334       0.50007080 </v>
   <v>       0.91666666       0.83333334       0.50007080 </v>
   <v>       0.41666666       0.08333334       0.50007080 </v>
   <v>       0.41666666       0.58333334       0.50007080 </v>
   <v>       0.91666666       0.08333334       0.50007080 </v>
   <v>       0.91666666       0.58333334       0.50007080 </v>
  </varray>
 </structure>
</modeling>
