<?xml version="1.0" encoding="ISO-8859-1"?>
<modeling>
 <generator>
  <i name="program" type="string">vasp </i>
  <i name="version" type="string">5.4.4.18Apr17-6-g9f103f2a35  </i>
  <i name="subversion" type="string">(build Feb 09 2021 16:27:36) complex            parallel </i>
  <i name="platform" type="string">IFC15_impi </i>
  <i name="date" type="string">2021 04 29 </i>
  <i name="time" type="string">03:38:54 </i>
 </generator>
 <incar>
  <i type="int" name="ISTART">     0</i>
  <i type="string" name="PREC">a</i>
  <i type="logical" name="ADDGRID"> T  </i>
  <i type="int" name="NELM">   300</i>
  <i type="int" name="NELMIN">     5</i>
  <i type="int" name="IBRION">    -1</i>
  <i name="EDIFF">      0.00000001</i>
  <i name="ENCUT">    500.00000000</i>
  <i type="logical" name="LREAL"> F  </i>
  <i type="int" name="ISMEAR">     0</i>
  <i name="SIGMA">      0.05000000</i>
  <i type="logical" name="LWAVE"> F  </i>
  <i type="logical" name="LCHARG"> F  </i>
  <v type="int" name="KPOINT_BSE">    -1     0     0     0</v>
  <i type="int" name="NELM">   300</i>
  <i type="logical" name="LDIPOL"> T  </i>
  <i type="int" name="IDIPOL">     3</i>
 </incar>
 <structure name="primitive_cell" >
  <crystal>
   <varray name="basis" >
    <v>      17.03433609       0.00000000       0.00000000 </v>
    <v>      -8.51716805      14.75216779       0.00000000 </v>
    <v>       0.00000000       0.00000000      31.29407310 </v>
   </varray>
   <i name="volume">   7863.99353597 </i>
   <varray name="rec_basis" >
    <v>       0.05870496       0.03389332       0.00000000 </v>
    <v>       0.00000000       0.06778665       0.00000000 </v>
    <v>       0.00000000       0.00000000       0.03195493 </v>
   </varray>
  </crystal>
  <varray name="positions" >
   <v>       0.04841610       0.39848906      -0.00476938 </v>
   <v>       0.02661586       0.22338414      -0.00509755 </v>
   <v>       0.02661586      -0.44676828      -0.00509755 </v>
   <v>       0.25000000      -0.50000000      -0.00506925 </v>
   <v>      -0.14944771       0.20110457      -0.00431747 </v>
   <v>      -0.14944771       0.39944771      -0.00431747 </v>
   <v>       0.00060404       0.24939596       0.07927100 </v>
   <v>       0.00060404      -0.49879191       0.07927097 </v>
   <v>       0.25000000      -0.50000000       0.08094485 </v>
   <v>      -0.08333334       0.33333334       0.10951073 </v>
   <v>       0.16687125       0.33374251       0.11114905 </v>
   <v>       0.16687125      -0.41687125       0.11114905 </v>
   <v>       0.19676828       0.22338414      -0.00509755 </v>
   <v>       0.19676828      -0.27661586      -0.00509755 </v>
   <v>       0.35055229       0.39944771      -0.00431747 </v>
   <v>      -0.25120809       0.24939596       0.07927100 </v>
   <v>       0.35055229      -0.29889543      -0.00431747 </v>
   <v>      -0.30323172       0.22338414      -0.00509755 </v>
   <v>       0.02661586       0.05323172      -0.00509755 </v>
   <v>       0.02661586      -0.27661586      -0.00509755 </v>
   <v>       0.24879191       0.24939596       0.07927100 </v>
   <v>       0.24879191      -0.25060404       0.07927100 </v>
   <v>      -0.08374251       0.08312875       0.11114905 </v>
   <v>      -0.08374251      -0.41687125       0.11114905 </v>
   <v>      -0.25000000       0.00000000      -0.00506925 </v>
   <v>      -0.25000000      -0.50000000      -0.00506925 </v>
   <v>      -0.08333334       0.33333334       0.19342860 </v>
   <v>       0.41625749      -0.41687125       0.11114905 </v>
   <v>      -0.25000000       0.00000000       0.08094485 </v>
   <v>      -0.25000000      -0.50000000       0.08094485 </v>
   <v>       0.16660331       0.33320661       0.19452973 </v>
   <v>       0.16660331      -0.41660330       0.19452973 </v>
   <v>       0.00060404       0.00120809       0.07927097 </v>
   <v>       0.00060404      -0.25060404       0.07927100 </v>
   <v>      -0.33312875       0.08312875       0.11114905 </v>
   <v>      -0.33312875       0.33374251       0.11114905 </v>
   <v>       0.08333331       0.41666666       0.22222222 </v>
   <v>      -0.47338414      -0.44676828      -0.00509755 </v>
   <v>      -0.47338414      -0.27661586      -0.00509755 </v>
   <v>      -0.14944771      -0.10055229      -0.00431747 </v>
   <v>       0.35055229       0.20110457      -0.00431747 </v>
   <v>      -0.14944771      -0.29889543      -0.00431747 </v>
   <v>       0.35055229      -0.10055229      -0.00431747 </v>
   <v>      -0.49939596      -0.49879191       0.07927097 </v>
   <v>      -0.49939596      -0.25060404       0.07927100 </v>
   <v>       0.16687125       0.08312875       0.11114905 </v>
   <v>       0.16687125      -0.16625749       0.11114905 </v>
   <v>       0.41666666       0.33333334       0.10951073 </v>
   <v>       0.41666666      -0.16666666       0.10951073 </v>
   <v>      -0.08320661       0.08339670       0.19452973 </v>
   <v>      -0.08320661      -0.41660330       0.19452973 </v>
   <v>      -0.47338414       0.05323172      -0.00509755 </v>
   <v>      -0.47338414       0.22338414      -0.00509755 </v>
   <v>      -0.16666666       0.16666667       0.22222222 </v>
   <v>      -0.16666666       0.41666666       0.22222222 </v>
   <v>       0.41679339      -0.41660330       0.19452973 </v>
   <v>       0.08333331       0.16666669       0.22222222 </v>
   <v>       0.08333331      -0.33333331       0.22222222 </v>
   <v>       0.04889542      -0.10055229      -0.00431747 </v>
   <v>      -0.45110458      -0.10055229      -0.00431747 </v>
   <v>      -0.45110458       0.39944771      -0.00431747 </v>
   <v>       0.33333334       0.41666666       0.22222222 </v>
   <v>       0.33333334      -0.33333333       0.22222222 </v>
   <v>      -0.33339669       0.08339670       0.19452973 </v>
   <v>      -0.33339669       0.33320661       0.19452973 </v>
   <v>      -0.49939596       0.00120809       0.07927097 </v>
   <v>      -0.49939596       0.24939596       0.07927100 </v>
   <v>       0.25000000       0.00000000      -0.00506925 </v>
   <v>       0.16660331       0.08339670       0.19452973 </v>
   <v>       0.16660331      -0.16679339       0.19452973 </v>
   <v>      -0.33312875      -0.16625749       0.11114905 </v>
   <v>      -0.33312875      -0.41687125       0.11114905 </v>
   <v>       0.41666666       0.33333334       0.19342860 </v>
   <v>       0.41666666      -0.16666666       0.19342860 </v>
   <v>       0.25000000       0.00000000       0.08094485 </v>
   <v>      -0.08333334      -0.16666666       0.10951073 </v>
   <v>      -0.30323172      -0.27661586      -0.00509755 </v>
   <v>       0.08333331       0.41666666       0.30555555 </v>
   <v>      -0.41666669       0.16666669       0.22222222 </v>
   <v>      -0.25120809      -0.25060404       0.07927100 </v>
   <v>       0.41625749       0.08312875       0.11114905 </v>
   <v>      -0.16666666      -0.08333334       0.22222222 </v>
   <v>      -0.16666666      -0.33333333       0.22222222 </v>
   <v>       0.33333334       0.16666667       0.22222222 </v>
   <v>      -0.16666666       0.16666667       0.30555555 </v>
   <v>      -0.16666666       0.41666666       0.30555555 </v>
   <v>       0.33333334      -0.08333334       0.22222222 </v>
   <v>      -0.33339669      -0.16679339       0.19452973 </v>
   <v>      -0.33339669      -0.41660330       0.19452973 </v>
   <v>       0.08333331       0.16666669       0.30555555 </v>
   <v>      -0.41666669      -0.33333331       0.22222222 </v>
   <v>       0.08333331      -0.33333331       0.30555555 </v>
   <v>      -0.08333334      -0.16666666       0.19342860 </v>
   <v>      -0.41666669      -0.08333334       0.22222222 </v>
   <v>      -0.41666669       0.41666666       0.22222222 </v>
   <v>       0.33333334       0.41666666       0.30555555 </v>
   <v>       0.33333334      -0.33333333       0.30555555 </v>
   <v>       0.00000000       0.25000000       0.33333334 </v>
   <v>       0.00000000      -0.50000000       0.33333334 </v>
   <v>       0.25000000      -0.50000000       0.33333334 </v>
   <v>       0.08333331      -0.08333334       0.22222222 </v>
   <v>       0.41679339       0.08339670       0.19452973 </v>
   <v>      -0.25000000       0.25000000       0.33333334 </v>
   <v>       0.25000000       0.25000000       0.33333334 </v>
   <v>       0.25000000      -0.25000000       0.33333334 </v>
   <v>      -0.41666669       0.16666669       0.30555555 </v>
   <v>      -0.16666666      -0.08333334       0.30555555 </v>
   <v>      -0.16666666      -0.33333333       0.30555555 </v>
   <v>      -0.25000000       0.00000000       0.33333334 </v>
   <v>      -0.25000000      -0.50000000       0.33333334 </v>
   <v>       0.33333334       0.16666667       0.30555555 </v>
   <v>       0.33333334      -0.08333334       0.30555555 </v>
   <v>       0.00000000       0.00000000       0.33333334 </v>
   <v>       0.00000000      -0.25000000       0.33333334 </v>
   <v>      -0.41666669      -0.33333331       0.30555555 </v>
   <v>      -0.41666669      -0.08333334       0.30555555 </v>
   <v>      -0.41666669       0.41666666       0.30555555 </v>
   <v>      -0.50000000      -0.50000000       0.33333334 </v>
   <v>      -0.50000000      -0.25000000       0.33333334 </v>
   <v>       0.08333331      -0.08333334       0.30555555 </v>
   <v>       0.00000000       0.25000000       0.41666666 </v>
   <v>       0.00000000      -0.50000000       0.41666666 </v>
   <v>      -0.50000000       0.00000000       0.33333334 </v>
   <v>      -0.50000000       0.25000000       0.33333334 </v>
   <v>       0.25000000      -0.50000000       0.41666666 </v>
   <v>       0.25000000       0.00000000       0.33333334 </v>
   <v>      -0.25000000       0.25000000       0.41666666 </v>
   <v>       0.25000000       0.25000000       0.41666666 </v>
   <v>       0.25000000      -0.25000000       0.41666666 </v>
   <v>      -0.08333334       0.33333334       0.44444445 </v>
   <v>      -0.25000000      -0.25000000       0.33333334 </v>
   <v>       0.16666667       0.33333334       0.44444445 </v>
   <v>       0.16666667      -0.41666666       0.44444445 </v>
   <v>      -0.25000000       0.00000000       0.41666666 </v>
   <v>      -0.25000000      -0.50000000       0.41666666 </v>
   <v>       0.00000000       0.00000000       0.41666666 </v>
   <v>       0.00000000      -0.25000000       0.41666666 </v>
   <v>      -0.08333334       0.08333334       0.44444445 </v>
   <v>      -0.08333334      -0.41666666       0.44444445 </v>
   <v>      -0.50000000      -0.50000000       0.41666666 </v>
   <v>      -0.50000000      -0.25000000       0.41666666 </v>
   <v>       0.41666666      -0.41666666       0.44444445 </v>
   <v>      -0.33333333       0.08333334       0.44444445 </v>
   <v>      -0.33333333       0.33333334       0.44444445 </v>
   <v>       0.16666667       0.08333334       0.44444445 </v>
   <v>       0.16666667      -0.16666666       0.44444445 </v>
   <v>      -0.50000000       0.00000000       0.41666666 </v>
   <v>      -0.08333334       0.33333334      -0.49992920 </v>
   <v>      -0.50000000       0.25000000       0.41666666 </v>
   <v>       0.41666666       0.33333334       0.44444445 </v>
   <v>       0.41666666      -0.16666666       0.44444445 </v>
   <v>       0.16666667       0.33333334      -0.49992920 </v>
   <v>       0.16666667      -0.41666666      -0.49992920 </v>
   <v>       0.25000000       0.00000000       0.41666666 </v>
   <v>      -0.08333334       0.08333334      -0.49992920 </v>
   <v>      -0.08333334      -0.41666666      -0.49992920 </v>
   <v>      -0.25000000      -0.25000000       0.41666666 </v>
   <v>       0.41666666      -0.41666666      -0.49992920 </v>
   <v>      -0.33333333      -0.16666666       0.44444445 </v>
   <v>      -0.33333333      -0.41666666       0.44444445 </v>
   <v>      -0.08333334      -0.16666666       0.44444445 </v>
   <v>      -0.33333333       0.08333334      -0.49992920 </v>
   <v>      -0.33333333       0.33333334      -0.49992920 </v>
   <v>       0.16666667       0.08333334      -0.49992920 </v>
   <v>       0.16666667      -0.16666666      -0.49992920 </v>
   <v>       0.41666666       0.08333334       0.44444445 </v>
   <v>       0.41666666       0.33333334      -0.49992920 </v>
   <v>       0.41666666      -0.16666666      -0.49992920 </v>
   <v>      -0.33333333      -0.16666666      -0.49992920 </v>
   <v>      -0.33333333      -0.41666666      -0.49992920 </v>
   <v>      -0.08333334      -0.16666666      -0.49992920 </v>
   <v>       0.41666666       0.08333334      -0.49992920 </v>
  </varray>
 </structure>
 <varray name="primitive_index" >
  <v type="int" >        1 </v>
  <v type="int" >       25 </v>
  <v type="int" >       14 </v>
  <v type="int" >       22 </v>
  <v type="int" >       11 </v>
  <v type="int" >        7 </v>
  <v type="int" >       97 </v>
  <v type="int" >       94 </v>
  <v type="int" >      102 </v>
  <v type="int" >       39 </v>
  <v type="int" >       29 </v>
  <v type="int" >       42 </v>
  <v type="int" >       17 </v>
  <v type="int" >       18 </v>
  <v type="int" >        5 </v>
  <v type="int" >      107 </v>
  <v type="int" >       10 </v>
  <v type="int" >       19 </v>
  <v type="int" >       13 </v>
  <v type="int" >       26 </v>
  <v type="int" >      105 </v>
  <v type="int" >      106 </v>
  <v type="int" >       35 </v>
  <v type="int" >       36 </v>
  <v type="int" >       23 </v>
  <v type="int" >       24 </v>
  <v type="int" >      119 </v>
  <v type="int" >       34 </v>
  <v type="int" >      103 </v>
  <v type="int" >      104 </v>
  <v type="int" >      109 </v>
  <v type="int" >      114 </v>
  <v type="int" >       93 </v>
  <v type="int" >       98 </v>
  <v type="int" >       43 </v>
  <v type="int" >       31 </v>
  <v type="int" >       49 </v>
  <v type="int" >       16 </v>
  <v type="int" >       28 </v>
  <v type="int" >        8 </v>
  <v type="int" >        9 </v>
  <v type="int" >       12 </v>
  <v type="int" >        6 </v>
  <v type="int" >       96 </v>
  <v type="int" >      100 </v>
  <v type="int" >       41 </v>
  <v type="int" >       30 </v>
  <v type="int" >       37 </v>
  <v type="int" >       38 </v>
  <v type="int" >      123 </v>
  <v type="int" >      124 </v>
  <v type="int" >       15 </v>
  <v type="int" >       27 </v>
  <v type="int" >       47 </v>
  <v type="int" >       59 </v>
  <v type="int" >      122 </v>
  <v type="int" >       53 </v>
  <v type="int" >       54 </v>
  <v type="int" >        2 </v>
  <v type="int" >        4 </v>
  <v type="int" >        3 </v>
  <v type="int" >       57 </v>
  <v type="int" >       46 </v>
  <v type="int" >      115 </v>
  <v type="int" >      111 </v>
  <v type="int" >       95 </v>
  <v type="int" >       99 </v>
  <v type="int" >       21 </v>
  <v type="int" >      113 </v>
  <v type="int" >      110 </v>
  <v type="int" >       32 </v>
  <v type="int" >       44 </v>
  <v type="int" >      117 </v>
  <v type="int" >      118 </v>
  <v type="int" >      101 </v>
  <v type="int" >       40 </v>
  <v type="int" >       20 </v>
  <v type="int" >      137 </v>
  <v type="int" >       55 </v>
  <v type="int" >      108 </v>
  <v type="int" >       33 </v>
  <v type="int" >       60 </v>
  <v type="int" >       48 </v>
  <v type="int" >       45 </v>
  <v type="int" >      127 </v>
  <v type="int" >      131 </v>
  <v type="int" >       58 </v>
  <v type="int" >      112 </v>
  <v type="int" >      116 </v>
  <v type="int" >      133 </v>
  <v type="int" >       56 </v>
  <v type="int" >      134 </v>
  <v type="int" >      120 </v>
  <v type="int" >       52 </v>
  <v type="int" >       51 </v>
  <v type="int" >      129 </v>
  <v type="int" >      126 </v>
  <v type="int" >       73 </v>
  <v type="int" >       62 </v>
  <v type="int" >       70 </v>
  <v type="int" >       50 </v>
  <v type="int" >      121 </v>
  <v type="int" >       67 </v>
  <v type="int" >       65 </v>
  <v type="int" >       66 </v>
  <v type="int" >      135 </v>
  <v type="int" >      132 </v>
  <v type="int" >      128 </v>
  <v type="int" >       71 </v>
  <v type="int" >       72 </v>
  <v type="int" >      125 </v>
  <v type="int" >      130 </v>
  <v type="int" >       61 </v>
  <v type="int" >       74 </v>
  <v type="int" >      136 </v>
  <v type="int" >      140 </v>
  <v type="int" >      139 </v>
  <v type="int" >       64 </v>
  <v type="int" >       76 </v>
  <v type="int" >      138 </v>
  <v type="int" >      145 </v>
  <v type="int" >      142 </v>
  <v type="int" >       63 </v>
  <v type="int" >       75 </v>
  <v type="int" >      150 </v>
  <v type="int" >       69 </v>
  <v type="int" >      155 </v>
  <v type="int" >      153 </v>
  <v type="int" >      154 </v>
  <v type="int" >       87 </v>
  <v type="int" >       68 </v>
  <v type="int" >       77 </v>
  <v type="int" >       90 </v>
  <v type="int" >      151 </v>
  <v type="int" >      152 </v>
  <v type="int" >      141 </v>
  <v type="int" >      146 </v>
  <v type="int" >       83 </v>
  <v type="int" >       84 </v>
  <v type="int" >      144 </v>
  <v type="int" >      148 </v>
  <v type="int" >       82 </v>
  <v type="int" >       91 </v>
  <v type="int" >       79 </v>
  <v type="int" >       89 </v>
  <v type="int" >       78 </v>
  <v type="int" >      143 </v>
  <v type="int" >      167 </v>
  <v type="int" >      147 </v>
  <v type="int" >       85 </v>
  <v type="int" >       86 </v>
  <v type="int" >      157 </v>
  <v type="int" >      162 </v>
  <v type="int" >      149 </v>
  <v type="int" >      171 </v>
  <v type="int" >      172 </v>
  <v type="int" >      156 </v>
  <v type="int" >      170 </v>
  <v type="int" >       80 </v>
  <v type="int" >       92 </v>
  <v type="int" >       88 </v>
  <v type="int" >      163 </v>
  <v type="int" >      159 </v>
  <v type="int" >      161 </v>
  <v type="int" >      158 </v>
  <v type="int" >       81 </v>
  <v type="int" >      165 </v>
  <v type="int" >      166 </v>
  <v type="int" >      160 </v>
  <v type="int" >      164 </v>
  <v type="int" >      168 </v>
  <v type="int" >      169 </v>
 </varray>
 <kpoints>
  <generation param="Gamma">
   <v type="int" name="divisions">       3        3        1 </v>
   <v name="usershift">      0.00000000       0.00000000       0.00000000 </v>
   <v name="genvec1">      0.33333333      -0.00000000       0.00000000 </v>
   <v name="genvec2">      0.00000000       0.33333333       0.00000000 </v>
   <v name="genvec3">      0.00000000       0.00000000       1.00000000 </v>
   <v name="shift">      0.00000000       0.00000000       0.00000000 </v>
  </generation>
  <varray name="kpointlist" >
   <v>       0.00000000       0.00000000       0.00000000 </v>
   <v>       0.33333333      -0.00000000       0.00000000 </v>
   <v>       0.00000000       0.33333333       0.00000000 </v>
   <v>       0.33333333       0.33333333       0.00000000 </v>
   <v>      -0.33333333       0.33333333       0.00000000 </v>
  </varray>
  <varray name="weights" >
   <v>       0.11111111 </v>
   <v>       0.22222222 </v>
   <v>       0.22222222 </v>
   <v>       0.22222222 </v>
   <v>       0.22222222 </v>
  </varray>
 </kpoints>
 <parameters>
  <separator name="general" >
   <i type="string" name="SYSTEM">unknown system</i>
   <i type="logical" name="LCOMPAT"> F  </i>
  </separator>
  <separator name="electronic" >
   <i type="string" name="PREC">a</i>
   <i name="ENMAX">    500.00000000</i>
   <i name="ENAUG">    462.75800000</i>
   <i name="EDIFF">      0.00000001</i>
   <i type="int" name="IALGO">    38</i>
   <i type="int" name="IWAVPR">    10</i>
   <i type="int" name="NBANDS">   924</i>
   <i name="NELECT">   1536.00000000</i>
   <i type="int" name="TURBO">     0</i>
   <i type="int" name="IRESTART">     0</i>
   <i type="int" name="NREBOOT">     0</i>
   <i type="int" name="NMIN">     0</i>
   <i name="EREF">      0.00000000</i>
   <separator name="electronic smearing" >
    <i type="int" name="ISMEAR">     0</i>
    <i name="SIGMA">      0.05000000</i>
    <i name="KSPACING">      0.50000000</i>
    <i type="logical" name="KGAMMA"> T  </i>
   </separator>
   <separator name="electronic projectors" >
    <i type="logical" name="LREAL"> F  </i>
    <v name="ROPT">      0.00000000      0.00000000      0.00000000</v>
    <i type="int" name="LMAXPAW">  -100</i>
    <i type="int" name="LMAXMIX">     2</i>
    <i type="logical" name="NLSPLINE"> F  </i>
   </separator>
   <separator name="electronic startup" >
    <i type="int" name="ISTART">     0</i>
    <i type="int" name="ICHARG">     2</i>
    <i type="int" name="INIWAV">     1</i>
   </separator>
   <separator name="electronic spin" >
    <i type="int" name="ISPIN">     1</i>
    <i type="logical" name="LNONCOLLINEAR"> F  </i>
    <v name="MAGMOM">      1.00000000      1.00000000      1.00000000      1.00000000      1.00000000      1.00000000      1.00000000      1.00000000      1.00000000      1.00000000      1.00000000      1.00000000      1.00000000      1.00000000      1.00000000      1.00000000      1.00000000      1.00000000      1.00000000      1.00000000
      1.00000000      1.00000000      1.00000000      1.00000000      1.00000000      1.00000000      1.00000000      1.00000000      1.00000000      1.00000000      1.00000000      1.00000000      1.00000000      1.00000000      1.00000000      1.00000000      1.00000000      1.00000000      1.00000000      1.00000000
      1.00000000      1.00000000      1.00000000      1.00000000      1.00000000      1.00000000      1.00000000      1.00000000      1.00000000      1.00000000      1.00000000      1.00000000      1.00000000      1.00000000      1.00000000      1.00000000      1.00000000      1.00000000      1.00000000      1.00000000
      1.00000000      1.00000000      1.00000000      1.00000000      1.00000000      1.00000000      1.00000000      1.00000000      1.00000000      1.00000000      1.00000000      1.00000000      1.00000000      1.00000000      1.00000000      1.00000000      1.00000000      1.00000000      1.00000000      1.00000000
      1.00000000      1.00000000      1.00000000      1.00000000      1.00000000      1.00000000      1.00000000      1.00000000      1.00000000      1.00000000      1.00000000      1.00000000      1.00000000      1.00000000      1.00000000      1.00000000      1.00000000      1.00000000      1.00000000      1.00000000
      1.00000000      1.00000000      1.00000000      1.00000000      1.00000000      1.00000000      1.00000000      1.00000000      1.00000000      1.00000000      1.00000000      1.00000000      1.00000000      1.00000000      1.00000000      1.00000000      1.00000000      1.00000000      1.00000000      1.00000000
      1.00000000      1.00000000      1.00000000      1.00000000      1.00000000      1.00000000      1.00000000      1.00000000      1.00000000      1.00000000      1.00000000      1.00000000      1.00000000      1.00000000      1.00000000      1.00000000      1.00000000      1.00000000      1.00000000      1.00000000
      1.00000000      1.00000000      1.00000000      1.00000000      1.00000000      1.00000000      1.00000000      1.00000000      1.00000000      1.00000000      1.00000000      1.00000000      1.00000000      1.00000000      1.00000000      1.00000000      1.00000000      1.00000000      1.00000000      1.00000000
      1.00000000      1.00000000      1.00000000      1.00000000      1.00000000      1.00000000      1.00000000      1.00000000      1.00000000      1.00000000      1.00000000      1.00000000</v>
    <i name="NUPDOWN">     -1.00000000</i>
    <i type="logical" name="LSORBIT"> F  </i>
    <v name="SAXIS">      0.00000000      0.00000000      1.00000000</v>
    <i type="logical" name="LSPIRAL"> F  </i>
    <v name="QSPIRAL">      0.00000000      0.00000000      0.00000000</v>
    <i type="logical" name="LZEROZ"> F  </i>
   </separator>
   <separator name="electronic exchange-correlation" >
    <i type="logical" name="LASPH"> F  </i>
    <i type="logical" name="LMETAGGA"> F  </i>
   </separator>
   <separator name="electronic convergence" >
    <i type="int" name="NELM">   300</i>
    <i type="int" name="NELMDL">    -5</i>
    <i type="int" name="NELMIN">     5</i>
    <i name="ENINI">    500.00000000</i>
    <separator name="electronic convergence detail" >
     <i type="logical" name="LDIAG"> T  </i>
     <i type="logical" name="LSUBROT"> F  </i>
     <i name="WEIMIN">      0.00000000</i>
     <i name="EBREAK">      0.00000000</i>
     <i name="DEPER">      0.30000000</i>
     <i type="int" name="NRMM">     4</i>
     <i name="TIME">      0.40000000</i>
    </separator>
   </separator>
   <separator name="electronic mixer" >
    <i name="AMIX">      0.40000000</i>
    <i name="BMIX">      1.00000000</i>
    <i name="AMIN">      0.10000000</i>
    <i name="AMIX_MAG">      1.60000000</i>
    <i name="BMIX_MAG">      1.00000000</i>
    <separator name="electronic mixer details" >
     <i type="int" name="IMIX">     4</i>
     <i type="logical" name="MIXFIRST"> F  </i>
     <i type="int" name="MAXMIX">   -45</i>
     <i name="WC">    100.00000000</i>
     <i type="int" name="INIMIX">     1</i>
     <i type="int" name="MIXPRE">     1</i>
     <i type="int" name="MREMOVE">     5</i>
    </separator>
   </separator>
   <separator name="electronic dipolcorrection" >
    <i type="logical" name="LDIPOL"> T  </i>
    <i type="logical" name="LMONO"> F  </i>
    <i type="int" name="IDIPOL">     3</i>
    <i name="EPSILON">      1.00000000</i>
    <v name="DIPOL">   -100.00000000   -100.00000000   -100.00000000</v>
    <i name="EFIELD">      0.00000000</i>
   </separator>
  </separator>
  <separator name="grids" >
   <i type="int" name="NGX">   126</i>
   <i type="int" name="NGY">   126</i>
   <i type="int" name="NGZ">   240</i>
   <i type="int" name="NGXF">   252</i>
   <i type="int" name="NGYF">   252</i>
   <i type="int" name="NGZF">   480</i>
   <i type="logical" name="ADDGRID"> T  </i>
  </separator>
  <separator name="ionic" >
   <i type="int" name="NSW">     0</i>
   <i type="int" name="IBRION">    -1</i>
   <i type="int" name="MDALGO">     0</i>
   <i type="int" name="ISIF">     2</i>
   <i name="PSTRESS">      0.00000000</i>
   <i name="EDIFFG">      0.00000010</i>
   <i type="int" name="NFREE">     0</i>
   <i name="POTIM">      0.50000000</i>
   <i name="SMASS">     -3.00000000</i>
   <i name="SCALEE">      1.00000000</i>
  </separator>
  <separator name="ionic md" >
   <i name="TEBEG">      0.00010000</i>
   <i name="TEEND">      0.00010000</i>
   <i type="int" name="NBLOCK">     1</i>
   <i type="int" name="KBLOCK">     1</i>
   <i type="int" name="NPACO">   256</i>
   <i name="APACO">     16.00000000</i>
  </separator>
  <separator name="symmetry" >
   <i type="int" name="ISYM">     2</i>
   <i name="SYMPREC">      0.00001000</i>
  </separator>
  <separator name="dos" >
   <i type="int" name="LORBIT">     0</i>
   <v name="RWIGS">     -1.00000000     -1.00000000     -1.00000000</v>
   <i type="int" name="NEDOS">   301</i>
   <i name="EMIN">     10.00000000</i>
   <i name="EMAX">    -10.00000000</i>
   <i name="EFERMI">      0.00000000</i>
  </separator>
  <separator name="writing" >
   <i type="int" name="NWRITE">     2</i>
   <i type="logical" name="LWAVE"> F  </i>
   <i type="logical" name="LDOWNSAMPLE"> F  </i>
   <i type="logical" name="LCHARG"> F  </i>
   <i type="logical" name="LPARD"> F  </i>
   <i type="logical" name="LVTOT"> F  </i>
   <i type="logical" name="LVHAR"> F  </i>
   <i type="logical" name="LELF"> F  </i>
   <i type="logical" name="LOPTICS"> F  </i>
   <v name="STM">      0.00000000      0.00000000      0.00000000      0.00000000      0.00000000      0.00000000      0.00000000</v>
  </separator>
  <separator name="performance" >
   <i type="int" name="NPAR">     4</i>
   <i type="int" name="NSIM">     4</i>
   <i type="int" name="NBLK">    -1</i>
   <i type="logical" name="LPLANE"> T  </i>
   <i type="logical" name="LSCALAPACK"> F  </i>
   <i type="logical" name="LSCAAWARE"> F  </i>
   <i type="logical" name="LSCALU"> F  </i>
   <i type="logical" name="LASYNC"> F  </i>
   <i type="logical" name="LORBITALREAL"> F  </i>
  </separator>
  <separator name="miscellaneous" >
   <i type="int" name="IDIOT">     3</i>
   <i type="int" name="ISPECIAL">     0</i>
   <i type="logical" name="LMUSIC"> F  </i>
   <v name="POMASS">    114.82000000     74.92200000      1.00000000</v>
   <v name="DARWINR">      0.00000000      0.00000000      0.00000000</v>
   <v name="DARWINV">      1.00000000      1.00000000      1.00000000</v>
   <i type="logical" name="LCORR"> T  </i>
  </separator>
  <i type="logical" name="GGA_COMPAT"> T  </i>
  <i type="logical" name="LBERRY"> F  </i>
  <i type="int" name="ICORELEVEL">     0</i>
  <i type="logical" name="LDAU"> F  </i>
  <i type="int" name="I_CONSTRAINED_M">     0</i>
  <separator name="electronic exchange-correlation" >
   <i type="string" name="GGA">--</i>
   <i type="int" name="VOSKOWN">     0</i>
   <i type="logical" name="LHFCALC"> F  </i>
   <i type="string" name="PRECFOCK"></i>
   <i type="logical" name="LSYMGRAD"> F  </i>
   <i type="logical" name="LHFONE"> F  </i>
   <i type="logical" name="LRHFCALC"> F  </i>
   <i type="logical" name="LTHOMAS"> F  </i>
   <i type="logical" name="LMODELHF"> F  </i>
   <i name="ENCUT4O">     -1.00000000</i>
   <i type="int" name="EXXOEP">     0</i>
   <i type="int" name="FOURORBIT">     0</i>
   <i name="AEXX">      0.00000000</i>
   <i name="HFALPHA">      0.00000000</i>
   <i name="MCALPHA">      0.00000000</i>
   <i name="ALDAX">      1.00000000</i>
   <i name="AGGAX">      1.00000000</i>
   <i name="ALDAC">      1.00000000</i>
   <i name="AGGAC">      1.00000000</i>
   <i type="int" name="NKREDX">     1</i>
   <i type="int" name="NKREDY">     1</i>
   <i type="int" name="NKREDZ">     1</i>
   <i type="logical" name="SHIFTRED"> F  </i>
   <i type="logical" name="ODDONLY"> F  </i>
   <i type="logical" name="EVENONLY"> F  </i>
   <i type="int" name="LMAXFOCK">     0</i>
   <i type="int" name="NMAXFOCKAE">     0</i>
   <i type="logical" name="LFOCKAEDFT"> F  </i>
   <i name="HFSCREEN">      0.00000000</i>
   <i name="HFSCREENC">      0.00000000</i>
   <i type="int" name="NBANDSGWLOW">     0</i>
  </separator>
  <separator name="vdW DFT" >
   <i type="logical" name="LUSE_VDW"> F  </i>
   <i name="Zab_VDW">     -0.84910000</i>
   <i name="PARAM1">      0.12340000</i>
   <i name="PARAM2">      1.00000000</i>
   <i name="PARAM3">      0.00000000</i>
  </separator>
  <separator name="model GW" >
   <i type="int" name="MODEL_GW">     0</i>
   <i name="MODEL_EPS0">     27.43253559</i>
   <i name="MODEL_ALPHA">      1.00000000</i>
  </separator>
  <separator name="linear response parameters" >
   <i type="logical" name="LEPSILON"> F  </i>
   <i type="logical" name="LRPA"> F  </i>
   <i type="logical" name="LNABLA"> F  </i>
   <i type="logical" name="LVEL"> F  </i>
   <i type="int" name="KINTER">     0</i>
   <i name="CSHIFT">      0.10000000</i>
   <i name="OMEGAMAX">     -1.00000000</i>
   <i name="DEG_THRESHOLD">      0.00200000</i>
   <i name="RTIME">     -0.10000000</i>
   <i name="WPLASMAI">      0.00000000</i>
   <v name="DFIELD">      0.00000000      0.00000000      0.00000000</v>
   <v name="WPLASMA">      0.00000000      0.00000000      0.00000000      0.00000000      0.00000000      0.00000000      0.00000000      0.00000000      0.00000000</v>
  </separator>
  <separator name="orbital magnetization" >
   <i type="logical" name="NUCIND"> F  </i>
   <v name="MAGPOS">      0.00000000      0.00000000      0.00000000</v>
   <i type="logical" name="LNICSALL"> T  </i>
   <i type="logical" name="ORBITALMAG"> F  </i>
   <i type="logical" name="LMAGBLOCH"> F  </i>
   <i type="logical" name="LCHIMAG"> F  </i>
   <i type="logical" name="LGAUGE"> T  </i>
   <i type="int" name="MAGATOM">     0</i>
   <v name="MAGDIPOL">      0.00000000      0.00000000      0.00000000</v>
   <v name="AVECCONST">      0.00000000      0.00000000      0.00000000</v>
  </separator>
  <separator name="response functions" >
   <i type="logical" name="LADDER"> F  </i>
   <i type="logical" name="LRPAFORCE"> F  </i>
   <i type="logical" name="LFXC"> F  </i>
   <i type="logical" name="LHARTREE"> T  </i>
   <i type="int" name="IBSE">     0</i>
   <v type="int" name="KPOINT">    -1     0     0     0</v>
   <i type="logical" name="LTCTE"> F  </i>
   <i type="logical" name="LTETE"> F  </i>
   <i type="logical" name="LTRIPLET"> F  </i>
   <i type="logical" name="LFXCEPS"> F  </i>
   <i type="logical" name="LFXHEG"> F  </i>
   <i type="int" name="NATURALO">     2</i>
   <i type="logical" name="L2ORDER"> F  </i>
   <i type="logical" name="LMP2LT"> F  </i>
   <i type="logical" name="LUSEW"> F  </i>
   <i name="ENCUTGW">     -2.00000000</i>
   <i name="ENCUTGWSOFT">     -2.00000000</i>
   <i name="ENCUTLF">     -1.00000000</i>
   <i type="int" name="LMAXMP2">    -1</i>
   <i name="SCISSOR">      0.00000000</i>
   <i type="int" name="NOMEGA">     0</i>
   <i type="int" name="NOMEGAR">     0</i>
   <i type="int" name="NBANDSGW">    -1</i>
   <i type="int" name="NBANDSO">    -1</i>
   <i type="int" name="NBANDSV">    -1</i>
   <i type="int" name="NELM">   300</i>
   <i type="int" name="NELMHF">     1</i>
   <i type="int" name="DIM">     3</i>
   <i type="int" name="ANTIRES">     0</i>
   <i name="OMEGAMAX">    -30.00000000</i>
   <i name="OMEGAMIN">    -30.00000000</i>
   <i name="OMEGATL">   -200.00000000</i>
   <i type="int" name="OMEGAGRID">   140</i>
   <i name="CSHIFT">     -0.10000000</i>
   <i type="logical" name="SELFENERGY"> F  </i>
   <i type="logical" name="LSPECTRAL"> F  </i>
   <i type="logical" name="LSPECTRALGW"> F  </i>
   <i type="logical" name="LSINGLES"> F  </i>
   <i type="logical" name="LFERMIGW"> F  </i>
   <i type="logical" name="ODDONLYGW"> F  </i>
   <i type="logical" name="EVENONLYGW"> F  </i>
   <i type="int" name="NKREDLFX">     1</i>
   <i type="int" name="NKREDLFY">     1</i>
   <i type="int" name="NKREDLFZ">     1</i>
   <i type="int" name="MAXMEM">  2800</i>
   <i type="int" name="TELESCOPE">     0</i>
   <i type="int" name="TAUPAR">     1</i>
   <i type="int" name="OMEGAPAR">    -1</i>
   <i name="LAMBDA">      1.00000000</i>
  </separator>
  <separator name="External order field" >
   <i name="OFIELD_KAPPA">      0.00000000</i>
   <v name="OFIELD_K">      0.00000000      0.00000000      0.00000000</v>
   <i name="OFIELD_Q6_NEAR">      0.00000000</i>
   <i name="OFIELD_Q6_FAR">      0.00000000</i>
   <i name="OFIELD_A">      0.00000000</i>
  </separator>
 </parameters>
 <atominfo>
  <atoms>     172 </atoms>
  <types>       3 </types>
  <array name="atoms" >
   <dimension dim="1">ion</dimension>
   <field type="string">element</field>
   <field type="int">atomtype</field>
   <set>
    <rc><c>In</c><c>   1</c></rc>
    <rc><c>In</c><c>   1</c></rc>
    <rc><c>In</c><c>   1</c></rc>
    <rc><c>In</c><c>   1</c></rc>
    <rc><c>In</c><c>   1</c></rc>
    <rc><c>In</c><c>   1</c></rc>
    <rc><c>In</c><c>   1</c></rc>
    <rc><c>In</c><c>   1</c></rc>
    <rc><c>In</c><c>   1</c></rc>
    <rc><c>In</c><c>   1</c></rc>
    <rc><c>In</c><c>   1</c></rc>
    <rc><c>In</c><c>   1</c></rc>
    <rc><c>In</c><c>   1</c></rc>
    <rc><c>In</c><c>   1</c></rc>
    <rc><c>In</c><c>   1</c></rc>
    <rc><c>In</c><c>   1</c></rc>
    <rc><c>In</c><c>   1</c></rc>
    <rc><c>In</c><c>   1</c></rc>
    <rc><c>In</c><c>   1</c></rc>
    <rc><c>In</c><c>   1</c></rc>
    <rc><c>In</c><c>   1</c></rc>
    <rc><c>In</c><c>   1</c></rc>
    <rc><c>In</c><c>   1</c></rc>
    <rc><c>In</c><c>   1</c></rc>
    <rc><c>In</c><c>   1</c></rc>
    <rc><c>In</c><c>   1</c></rc>
    <rc><c>In</c><c>   1</c></rc>
    <rc><c>In</c><c>   1</c></rc>
    <rc><c>In</c><c>   1</c></rc>
    <rc><c>In</c><c>   1</c></rc>
    <rc><c>In</c><c>   1</c></rc>
    <rc><c>In</c><c>   1</c></rc>
    <rc><c>In</c><c>   1</c></rc>
    <rc><c>In</c><c>   1</c></rc>
    <rc><c>In</c><c>   1</c></rc>
    <rc><c>In</c><c>   1</c></rc>
    <rc><c>In</c><c>   1</c></rc>
    <rc><c>In</c><c>   1</c></rc>
    <rc><c>In</c><c>   1</c></rc>
    <rc><c>In</c><c>   1</c></rc>
    <rc><c>In</c><c>   1</c></rc>
    <rc><c>In</c><c>   1</c></rc>
    <rc><c>In</c><c>   1</c></rc>
    <rc><c>In</c><c>   1</c></rc>
    <rc><c>In</c><c>   1</c></rc>
    <rc><c>In</c><c>   1</c></rc>
    <rc><c>In</c><c>   1</c></rc>
    <rc><c>In</c><c>   1</c></rc>
    <rc><c>In</c><c>   1</c></rc>
    <rc><c>In</c><c>   1</c></rc>
    <rc><c>In</c><c>   1</c></rc>
    <rc><c>In</c><c>   1</c></rc>
    <rc><c>In</c><c>   1</c></rc>
    <rc><c>In</c><c>   1</c></rc>
    <rc><c>In</c><c>   1</c></rc>
    <rc><c>In</c><c>   1</c></rc>
    <rc><c>In</c><c>   1</c></rc>
    <rc><c>In</c><c>   1</c></rc>
    <rc><c>In</c><c>   1</c></rc>
    <rc><c>In</c><c>   1</c></rc>
    <rc><c>In</c><c>   1</c></rc>
    <rc><c>In</c><c>   1</c></rc>
    <rc><c>In</c><c>   1</c></rc>
    <rc><c>In</c><c>   1</c></rc>
    <rc><c>In</c><c>   1</c></rc>
    <rc><c>In</c><c>   1</c></rc>
    <rc><c>In</c><c>   1</c></rc>
    <rc><c>In</c><c>   1</c></rc>
    <rc><c>In</c><c>   1</c></rc>
    <rc><c>In</c><c>   1</c></rc>
    <rc><c>In</c><c>   1</c></rc>
    <rc><c>In</c><c>   1</c></rc>
    <rc><c>In</c><c>   1</c></rc>
    <rc><c>In</c><c>   1</c></rc>
    <rc><c>In</c><c>   1</c></rc>
    <rc><c>In</c><c>   1</c></rc>
    <rc><c>In</c><c>   1</c></rc>
    <rc><c>In</c><c>   1</c></rc>
    <rc><c>In</c><c>   1</c></rc>
    <rc><c>In</c><c>   1</c></rc>
    <rc><c>In</c><c>   1</c></rc>
    <rc><c>In</c><c>   1</c></rc>
    <rc><c>In</c><c>   1</c></rc>
    <rc><c>In</c><c>   1</c></rc>
    <rc><c>In</c><c>   1</c></rc>
    <rc><c>In</c><c>   1</c></rc>
    <rc><c>In</c><c>   1</c></rc>
    <rc><c>In</c><c>   1</c></rc>
    <rc><c>In</c><c>   1</c></rc>
    <rc><c>In</c><c>   1</c></rc>
    <rc><c>In</c><c>   1</c></rc>
    <rc><c>In</c><c>   1</c></rc>
    <rc><c>As</c><c>   2</c></rc>
    <rc><c>As</c><c>   2</c></rc>
    <rc><c>As</c><c>   2</c></rc>
    <rc><c>As</c><c>   2</c></rc>
    <rc><c>As</c><c>   2</c></rc>
    <rc><c>As</c><c>   2</c></rc>
    <rc><c>As</c><c>   2</c></rc>
    <rc><c>As</c><c>   2</c></rc>
    <rc><c>As</c><c>   2</c></rc>
    <rc><c>As</c><c>   2</c></rc>
    <rc><c>As</c><c>   2</c></rc>
    <rc><c>As</c><c>   2</c></rc>
    <rc><c>As</c><c>   2</c></rc>
    <rc><c>As</c><c>   2</c></rc>
    <rc><c>As</c><c>   2</c></rc>
    <rc><c>As</c><c>   2</c></rc>
    <rc><c>As</c><c>   2</c></rc>
    <rc><c>As</c><c>   2</c></rc>
    <rc><c>As</c><c>   2</c></rc>
    <rc><c>As</c><c>   2</c></rc>
    <rc><c>As</c><c>   2</c></rc>
    <rc><c>As</c><c>   2</c></rc>
    <rc><c>As</c><c>   2</c></rc>
    <rc><c>As</c><c>   2</c></rc>
    <rc><c>As</c><c>   2</c></rc>
    <rc><c>As</c><c>   2</c></rc>
    <rc><c>As</c><c>   2</c></rc>
    <rc><c>As</c><c>   2</c></rc>
    <rc><c>As</c><c>   2</c></rc>
    <rc><c>As</c><c>   2</c></rc>
    <rc><c>As</c><c>   2</c></rc>
    <rc><c>As</c><c>   2</c></rc>
    <rc><c>As</c><c>   2</c></rc>
    <rc><c>As</c><c>   2</c></rc>
    <rc><c>As</c><c>   2</c></rc>
    <rc><c>As</c><c>   2</c></rc>
    <rc><c>As</c><c>   2</c></rc>
    <rc><c>As</c><c>   2</c></rc>
    <rc><c>As</c><c>   2</c></rc>
    <rc><c>As</c><c>   2</c></rc>
    <rc><c>As</c><c>   2</c></rc>
    <rc><c>As</c><c>   2</c></rc>
    <rc><c>As</c><c>   2</c></rc>
    <rc><c>As</c><c>   2</c></rc>
    <rc><c>As</c><c>   2</c></rc>
    <rc><c>As</c><c>   2</c></rc>
    <rc><c>As</c><c>   2</c></rc>
    <rc><c>As</c><c>   2</c></rc>
    <rc><c>As</c><c>   2</c></rc>
    <rc><c>As</c><c>   2</c></rc>
    <rc><c>As</c><c>   2</c></rc>
    <rc><c>As</c><c>   2</c></rc>
    <rc><c>As</c><c>   2</c></rc>
    <rc><c>As</c><c>   2</c></rc>
    <rc><c>As</c><c>   2</c></rc>
    <rc><c>As</c><c>   2</c></rc>
    <rc><c>As</c><c>   2</c></rc>
    <rc><c>As</c><c>   2</c></rc>
    <rc><c>As</c><c>   2</c></rc>
    <rc><c>As</c><c>   2</c></rc>
    <rc><c>As</c><c>   2</c></rc>
    <rc><c>As</c><c>   2</c></rc>
    <rc><c>As</c><c>   2</c></rc>
    <rc><c>As</c><c>   2</c></rc>
    <rc><c>H </c><c>   3</c></rc>
    <rc><c>H </c><c>   3</c></rc>
    <rc><c>H </c><c>   3</c></rc>
    <rc><c>H </c><c>   3</c></rc>
    <rc><c>H </c><c>   3</c></rc>
    <rc><c>H </c><c>   3</c></rc>
    <rc><c>H </c><c>   3</c></rc>
    <rc><c>H </c><c>   3</c></rc>
    <rc><c>H </c><c>   3</c></rc>
    <rc><c>H </c><c>   3</c></rc>
    <rc><c>H </c><c>   3</c></rc>
    <rc><c>H </c><c>   3</c></rc>
    <rc><c>H </c><c>   3</c></rc>
    <rc><c>H </c><c>   3</c></rc>
    <rc><c>H </c><c>   3</c></rc>
    <rc><c>H </c><c>   3</c></rc>
   </set>
  </array>
  <array name="atomtypes" >
   <dimension dim="1">type</dimension>
   <field type="int">atomspertype</field>
   <field type="string">element</field>
   <field>mass</field>
   <field>valence</field>
   <field type="string">pseudopotential</field>
   <set>
    <rc><c>  92</c><c>In</c><c>    114.82000000</c><c>     13.00000000</c><c> PAW In_d 11Feb1998                     </c></rc>
    <rc><c>  64</c><c>As</c><c>     74.92200000</c><c>      5.00000000</c><c> PAW As 03Mar1998                       </c></rc>
    <rc><c>  16</c><c>H </c><c>      1.00000000</c><c>      1.25000000</c><c> PAW H1.25 14Feb2000                    </c></rc>
   </set>
  </array>
 </atominfo>
 <structure name="initialpos" >
  <crystal>
   <varray name="basis" >
    <v>      17.03433609       0.00000000       0.00000000 </v>
    <v>      -8.51716805      14.75216779       0.00000000 </v>
    <v>       0.00000000       0.00000000      31.29407310 </v>
   </varray>
   <i name="volume">   7863.99353597 </i>
   <varray name="rec_basis" >
    <v>       0.05870496       0.03389332       0.00000000 </v>
    <v>       0.00000000       0.06778665       0.00000000 </v>
    <v>       0.00000000       0.00000000       0.03195493 </v>
   </varray>
  </crystal>
  <varray name="positions" >
   <v>       0.04841610       0.39848906       0.99523062 </v>
   <v>       0.04889542       0.89944771       0.99568253 </v>
   <v>       0.54889542       0.39944771       0.99568253 </v>
   <v>       0.54889542       0.89944771       0.99568253 </v>
   <v>       0.35055229       0.39944771       0.99568253 </v>
   <v>       0.35055229       0.89944771       0.99568253 </v>
   <v>       0.85055229       0.39944771       0.99568253 </v>
   <v>       0.85055229       0.89944771       0.99568253 </v>
   <v>       0.35055229       0.20110457       0.99568253 </v>
   <v>       0.35055229       0.70110457       0.99568253 </v>
   <v>       0.85055229       0.20110457       0.99568253 </v>
   <v>       0.85055229       0.70110457       0.99568253 </v>
   <v>       0.02661586       0.05323172       0.99490245 </v>
   <v>       0.02661586       0.55323172       0.99490245 </v>
   <v>       0.52661586       0.05323172       0.99490245 </v>
   <v>       0.52661586       0.55323172       0.99490245 </v>
   <v>       0.19676828       0.22338414       0.99490245 </v>
   <v>       0.19676828       0.72338414       0.99490245 </v>
   <v>       0.69676828       0.22338414       0.99490245 </v>
   <v>       0.69676828       0.72338414       0.99490245 </v>
   <v>       0.25000000       0.00000000       0.99493075 </v>
   <v>       0.25000000       0.50000000       0.99493075 </v>
   <v>       0.75000000       0.00000000       0.99493075 </v>
   <v>       0.75000000       0.50000000       0.99493075 </v>
   <v>       0.02661586       0.22338414       0.99490245 </v>
   <v>       0.02661586       0.72338414       0.99490245 </v>
   <v>       0.52661586       0.22338414       0.99490245 </v>
   <v>       0.52661586       0.72338414       0.99490245 </v>
   <v>       0.16687125       0.33374251       0.11114905 </v>
   <v>       0.16687125       0.83374251       0.11114905 </v>
   <v>       0.66687125       0.33374251       0.11114905 </v>
   <v>       0.66687125       0.83374251       0.11114905 </v>
   <v>       0.41625749       0.08312875       0.11114905 </v>
   <v>       0.41625749       0.58312875       0.11114905 </v>
   <v>       0.91625749       0.08312875       0.11114905 </v>
   <v>       0.91625749       0.58312875       0.11114905 </v>
   <v>       0.41666666       0.33333334       0.10951073 </v>
   <v>       0.41666666       0.83333334       0.10951073 </v>
   <v>       0.91666666       0.33333334       0.10951073 </v>
   <v>       0.91666666       0.83333334       0.10951073 </v>
   <v>       0.16687125       0.08312875       0.11114905 </v>
   <v>       0.16687125       0.58312875       0.11114905 </v>
   <v>       0.66687125       0.08312875       0.11114905 </v>
   <v>       0.66687125       0.58312875       0.11114905 </v>
   <v>       0.33333334       0.16666667       0.22222222 </v>
   <v>       0.33333334       0.66666667       0.22222222 </v>
   <v>       0.83333334       0.16666667       0.22222222 </v>
   <v>       0.83333334       0.66666667       0.22222222 </v>
   <v>       0.08333331       0.41666666       0.22222222 </v>
   <v>       0.08333331       0.91666666       0.22222222 </v>
   <v>       0.58333331       0.41666666       0.22222222 </v>
   <v>       0.58333331       0.91666666       0.22222222 </v>
   <v>       0.08333331       0.16666669       0.22222222 </v>
   <v>       0.08333331       0.66666669       0.22222222 </v>
   <v>       0.58333331       0.16666669       0.22222222 </v>
   <v>       0.58333331       0.66666669       0.22222222 </v>
   <v>       0.33333334       0.41666666       0.22222222 </v>
   <v>       0.33333334       0.91666666       0.22222222 </v>
   <v>       0.83333334       0.41666666       0.22222222 </v>
   <v>       0.83333334       0.91666666       0.22222222 </v>
   <v>       0.00000000       0.00000000       0.33333334 </v>
   <v>       0.00000000       0.50000000       0.33333334 </v>
   <v>       0.50000000       0.00000000       0.33333334 </v>
   <v>       0.50000000       0.50000000       0.33333334 </v>
   <v>       0.25000000       0.25000000       0.33333334 </v>
   <v>       0.25000000       0.75000000       0.33333334 </v>
   <v>       0.75000000       0.25000000       0.33333334 </v>
   <v>       0.75000000       0.75000000       0.33333334 </v>
   <v>       0.25000000       0.00000000       0.33333334 </v>
   <v>       0.25000000       0.50000000       0.33333334 </v>
   <v>       0.75000000       0.00000000       0.33333334 </v>
   <v>       0.75000000       0.50000000       0.33333334 </v>
   <v>       0.00000000       0.25000000       0.33333334 </v>
   <v>       0.00000000       0.75000000       0.33333334 </v>
   <v>       0.50000000       0.25000000       0.33333334 </v>
   <v>       0.50000000       0.75000000       0.33333334 </v>
   <v>       0.16666667       0.33333334       0.44444445 </v>
   <v>       0.16666667       0.83333334       0.44444445 </v>
   <v>       0.66666667       0.33333334       0.44444445 </v>
   <v>       0.66666667       0.83333334       0.44444445 </v>
   <v>       0.41666666       0.08333334       0.44444445 </v>
   <v>       0.41666666       0.58333334       0.44444445 </v>
   <v>       0.91666666       0.08333334       0.44444445 </v>
   <v>       0.91666666       0.58333334       0.44444445 </v>
   <v>       0.41666666       0.33333334       0.44444445 </v>
   <v>       0.41666666       0.83333334       0.44444445 </v>
   <v>       0.91666666       0.33333334       0.44444445 </v>
   <v>       0.91666666       0.83333334       0.44444445 </v>
   <v>       0.16666667       0.08333334       0.44444445 </v>
   <v>       0.16666667       0.58333334       0.44444445 </v>
   <v>       0.66666667       0.08333334       0.44444445 </v>
   <v>       0.66666667       0.58333334       0.44444445 </v>
   <v>       0.00060404       0.00120809       0.07927097 </v>
   <v>       0.00060404       0.50120809       0.07927097 </v>
   <v>       0.50060404       0.00120809       0.07927097 </v>
   <v>       0.50060404       0.50120809       0.07927097 </v>
   <v>       0.00060404       0.24939596       0.07927100 </v>
   <v>       0.00060404       0.74939596       0.07927100 </v>
   <v>       0.50060404       0.24939596       0.07927100 </v>
   <v>       0.50060404       0.74939596       0.07927100 </v>
   <v>       0.25000000       0.00000000       0.08094485 </v>
   <v>       0.25000000       0.50000000       0.08094485 </v>
   <v>       0.75000000       0.00000000       0.08094485 </v>
   <v>       0.75000000       0.50000000       0.08094485 </v>
   <v>       0.24879191       0.24939596       0.07927100 </v>
   <v>       0.24879191       0.74939596       0.07927100 </v>
   <v>       0.74879191       0.24939596       0.07927100 </v>
   <v>       0.74879191       0.74939596       0.07927100 </v>
   <v>       0.16660331       0.33320661       0.19452973 </v>
   <v>       0.16660331       0.83320661       0.19452973 </v>
   <v>       0.66660331       0.33320661       0.19452973 </v>
   <v>       0.66660331       0.83320661       0.19452973 </v>
   <v>       0.16660331       0.08339670       0.19452973 </v>
   <v>       0.16660331       0.58339670       0.19452973 </v>
   <v>       0.66660331       0.08339670       0.19452973 </v>
   <v>       0.66660331       0.58339670       0.19452973 </v>
   <v>       0.41666666       0.33333334       0.19342860 </v>
   <v>       0.41666666       0.83333334       0.19342860 </v>
   <v>       0.91666666       0.33333334       0.19342860 </v>
   <v>       0.91666666       0.83333334       0.19342860 </v>
   <v>       0.41679339       0.08339670       0.19452973 </v>
   <v>       0.41679339       0.58339670       0.19452973 </v>
   <v>       0.91679339       0.08339670       0.19452973 </v>
   <v>       0.91679339       0.58339670       0.19452973 </v>
   <v>       0.33333334       0.16666667       0.30555555 </v>
   <v>       0.33333334       0.66666667       0.30555555 </v>
   <v>       0.83333334       0.16666667       0.30555555 </v>
   <v>       0.83333334       0.66666667       0.30555555 </v>
   <v>       0.33333334       0.41666666       0.30555555 </v>
   <v>       0.33333334       0.91666666       0.30555555 </v>
   <v>       0.83333334       0.41666666       0.30555555 </v>
   <v>       0.83333334       0.91666666       0.30555555 </v>
   <v>       0.08333331       0.16666669       0.30555555 </v>
   <v>       0.08333331       0.66666669       0.30555555 </v>
   <v>       0.58333331       0.16666669       0.30555555 </v>
   <v>       0.58333331       0.66666669       0.30555555 </v>
   <v>       0.08333331       0.41666666       0.30555555 </v>
   <v>       0.08333331       0.91666666       0.30555555 </v>
   <v>       0.58333331       0.41666666       0.30555555 </v>
   <v>       0.58333331       0.91666666       0.30555555 </v>
   <v>       0.00000000       0.00000000       0.41666666 </v>
   <v>       0.00000000       0.50000000       0.41666666 </v>
   <v>       0.50000000       0.00000000       0.41666666 </v>
   <v>       0.50000000       0.50000000       0.41666666 </v>
   <v>       0.00000000       0.25000000       0.41666666 </v>
   <v>       0.00000000       0.75000000       0.41666666 </v>
   <v>       0.50000000       0.25000000       0.41666666 </v>
   <v>       0.50000000       0.75000000       0.41666666 </v>
   <v>       0.25000000       0.00000000       0.41666666 </v>
   <v>       0.25000000       0.50000000       0.41666666 </v>
   <v>       0.75000000       0.00000000       0.41666666 </v>
   <v>       0.75000000       0.50000000       0.41666666 </v>
   <v>       0.25000000       0.25000000       0.41666666 </v>
   <v>       0.25000000       0.75000000       0.41666666 </v>
   <v>       0.75000000       0.25000000       0.41666666 </v>
   <v>       0.75000000       0.75000000       0.41666666 </v>
   <v>       0.16666667       0.33333334       0.50007080 </v>
   <v>       0.16666667       0.83333334       0.50007080 </v>
   <v>       0.66666667       0.33333334       0.50007080 </v>
   <v>       0.66666667       0.83333334       0.50007080 </v>
   <v>       0.16666667       0.08333334       0.50007080 </v>
   <v>       0.16666667       0.58333334       0.50007080 </v>
   <v>       0.66666667       0.08333334       0.50007080 </v>
   <v>       0.66666667       0.58333334       0.50007080 </v>
   <v>       0.41666666       0.33333334       0.50007080 </v>
   <v>       0.41666666       0.83333334       0.50007080 </v>
   <v>       0.91666666       0.33333334       0.50007080 </v>
   <v>       0.91666666       0.83333334       0.50007080 </v>
   <v>       0.41666666       0.08333334       0.50007080 </v>
   <v>       0.41666666       0.58333334       0.50007080 </v>
   <v>       0.91666666       0.08333334       0.50007080 </v>
   <v>       0.91666666       0.58333334       0.50007080 </v>
  </varray>
 </structure>
 <calculation>
  <scstep>
   <time name="dav">  484.94  485.75</time>
   <time name="total">  485.66  486.49</time>
   <dipole>
    <v name="dipole">      0.00000000       0.00000000      -0.00133638 </v>
    <i name="Tr[quadrupol]"> -74891.19843482 </i>
    <i name="Echarged">      0.00000000 </i>
    <i name="Edipol_quadrupol">      0.00000000 </i>
    <i name="Eion">      0.00000000 </i>
   </dipole>
   <energy>
    <i name="alphaZ">   1768.57129286 </i>
    <i name="ewald"> 318676.17720449 </i>
    <i name="hartreedc">-467253.21868480 </i>
    <i name="XCdc">   3216.68005985 </i>
    <i name="pawpsdc"> 116446.47017590 </i>
    <i name="pawaedc">-114544.52040592 </i>
    <i name="eentropy">     -0.04089849 </i>
    <i name="bandstr">    625.83646045 </i>
    <i name="atom"> 156698.92270065 </i>
    <i name="e_fr_energy">  15634.87790501 </i>
    <i name="e_wo_entrp">  15634.91880350 </i>
    <i name="e_0_energy">  15634.89835425 </i>
   </energy>
  </scstep>
  <scstep>
   <time name="dav">  498.96  499.66</time>
   <time name="total">  498.97  499.68</time>
   <dipole>
    <v name="dipole">      0.00000000       0.00000000      -0.00133638 </v>
    <i name="Tr[quadrupol]"> -74891.19843482 </i>
    <i name="Echarged">      0.00000000 </i>
    <i name="Edipol_quadrupol">      0.00000000 </i>
    <i name="Eion">      0.00000000 </i>
   </dipole>
   <energy>
    <i name="e_fr_energy">   1763.19150472 </i>
    <i name="e_wo_entrp">   1763.23839179 </i>
    <i name="e_0_energy">   1763.21494825 </i>
   </energy>
  </scstep>
  <scstep>
   <time name="dav">  530.33  573.73</time>
   <time name="total">  530.35  573.75</time>
   <dipole>
    <v name="dipole">      0.00000000       0.00000000      -0.00133638 </v>
    <i name="Tr[quadrupol]"> -74891.19843482 </i>
    <i name="Echarged">      0.00000000 </i>
    <i name="Edipol_quadrupol">      0.00000000 </i>
    <i name="Eion">      0.00000000 </i>
   </dipole>
   <energy>
    <i name="e_fr_energy">   -526.24944387 </i>
    <i name="e_wo_entrp">   -526.23643569 </i>
    <i name="e_0_energy">   -526.24293978 </i>
   </energy>
  </scstep>
  <scstep>
   <time name="dav">  541.02  542.66</time>
   <time name="total">  541.04  542.67</time>
   <dipole>
    <v name="dipole">      0.00000000       0.00000000      -0.00133638 </v>
    <i name="Tr[quadrupol]"> -74891.19843482 </i>
    <i name="Echarged">      0.00000000 </i>
    <i name="Edipol_quadrupol">      0.00000000 </i>
    <i name="Eion">      0.00000000 </i>
   </dipole>
   <energy>
    <i name="e_fr_energy">   -721.80421623 </i>
    <i name="e_wo_entrp">   -721.78676913 </i>
    <i name="e_0_energy">   -721.79549268 </i>
   </energy>
  </scstep>
  <scstep>
   <time name="dav">  545.77  546.74</time>
   <time name="total">  551.84  552.82</time>
   <dipole>
    <v name="dipole">      0.00000000       0.00000000      -0.00133638 </v>
    <i name="Tr[quadrupol]"> -74891.19843482 </i>
    <i name="Echarged">      0.00000000 </i>
    <i name="Edipol_quadrupol">      0.00000000 </i>
    <i name="Eion">      0.00000000 </i>
   </dipole>
   <energy>
    <i name="e_fr_energy">   -730.86349586 </i>
    <i name="e_wo_entrp">   -730.84577946 </i>
    <i name="e_0_energy">   -730.85463766 </i>
   </energy>
  </scstep>
  <scstep>
   <time name="dav">  595.10  597.11</time>
   <time name="total">  601.75  603.85</time>
   <dipole>
    <v name="dipole">      0.00000000       0.00000000       1.73584972 </v>
    <i name="Tr[quadrupol]"> -74907.42268281 </i>
    <i name="Echarged">      0.00000000 </i>
    <i name="Edipol_quadrupol">      0.00000000 </i>
    <i name="Eion">      0.00000000 </i>
   </dipole>
   <energy>
    <i name="e_fr_energy">   -706.93442637 </i>
    <i name="e_wo_entrp">   -706.92489488 </i>
    <i name="e_0_energy">   -706.92966062 </i>
   </energy>
  </scstep>
  <scstep>
   <time name="dav">  614.06  621.04</time>
   <time name="total">  620.60  627.66</time>
   <dipole>
    <v name="dipole">      0.00000000       0.00000000       0.19121691 </v>
    <i name="Tr[quadrupol]"> -74910.82206182 </i>
    <i name="Echarged">      0.00000000 </i>
    <i name="Edipol_quadrupol">      0.00000000 </i>
    <i name="Eion">      0.00000000 </i>
   </dipole>
   <energy>
    <i name="e_fr_energy">   -703.75268413 </i>
    <i name="e_wo_entrp">   -703.74111677 </i>
    <i name="e_0_energy">   -703.74690045 </i>
   </energy>
  </scstep>
  <scstep>
   <time name="dav">  581.55  585.96</time>
   <time name="total">  588.08  592.55</time>
   <dipole>
    <v name="dipole">      0.00000000       0.00000000       1.34888891 </v>
    <i name="Tr[quadrupol]"> -74915.89555599 </i>
    <i name="Echarged">      0.00000000 </i>
    <i name="Edipol_quadrupol">      0.00000000 </i>
    <i name="Eion">      0.00000000 </i>
   </dipole>
   <energy>
    <i name="e_fr_energy">   -703.82012937 </i>
    <i name="e_wo_entrp">   -703.81200571 </i>
    <i name="e_0_energy">   -703.81606754 </i>
   </energy>
  </scstep>
  <scstep>
   <time name="dav">  615.00  622.34</time>
   <time name="total">  621.49  628.92</time>
   <dipole>
    <v name="dipole">      0.00000000       0.00000000       1.12595994 </v>
    <i name="Tr[quadrupol]"> -74921.52320665 </i>
    <i name="Echarged">      0.00000000 </i>
    <i name="Edipol_quadrupol">      0.00000000 </i>
    <i name="Eion">      0.00000000 </i>
   </dipole>
   <energy>
    <i name="e_fr_energy">   -703.67203361 </i>
    <i name="e_wo_entrp">   -703.66460945 </i>
    <i name="e_0_energy">   -703.66832153 </i>
   </energy>
  </scstep>
  <scstep>
   <time name="dav">  624.43  628.92</time>
   <time name="total">  630.97  635.49</time>
   <dipole>
    <v name="dipole">      0.00000000       0.00000000       1.14095260 </v>
    <i name="Tr[quadrupol]"> -74925.65332249 </i>
    <i name="Echarged">      0.00000000 </i>
    <i name="Edipol_quadrupol">      0.00000000 </i>
    <i name="Eion">      0.00000000 </i>
   </dipole>
   <energy>
    <i name="e_fr_energy">   -703.67388223 </i>
    <i name="e_wo_entrp">   -703.66652808 </i>
    <i name="e_0_energy">   -703.67020516 </i>
   </energy>
  </scstep>
  <scstep>
   <time name="dav">  573.04  576.91</time>
   <time name="total">  579.61  583.48</time>
   <dipole>
    <v name="dipole">      0.00000000       0.00000000       1.21165743 </v>
    <i name="Tr[quadrupol]"> -74927.08416584 </i>
    <i name="Echarged">      0.00000000 </i>
    <i name="Edipol_quadrupol">      0.00000000 </i>
    <i name="Eion">      0.00000000 </i>
   </dipole>
   <energy>
    <i name="e_fr_energy">   -703.68177354 </i>
    <i name="e_wo_entrp">   -703.67439851 </i>
    <i name="e_0_energy">   -703.67808603 </i>
   </energy>
  </scstep>
  <scstep>
   <time name="dav">  624.21  628.36</time>
   <time name="total">  630.78  634.95</time>
   <dipole>
    <v name="dipole">      0.00000000       0.00000000       1.23807157 </v>
    <i name="Tr[quadrupol]"> -74929.26157337 </i>
    <i name="Echarged">      0.00000000 </i>
    <i name="Edipol_quadrupol">      0.00000000 </i>
    <i name="Eion">      0.00000000 </i>
   </dipole>
   <energy>
    <i name="e_fr_energy">   -703.68624788 </i>
    <i name="e_wo_entrp">   -703.67882576 </i>
    <i name="e_0_energy">   -703.68253682 </i>
   </energy>
  </scstep>
  <scstep>
   <time name="dav">  593.98  600.65</time>
   <time name="total">  600.52  607.26</time>
   <dipole>
    <v name="dipole">      0.00000000       0.00000000       1.24328587 </v>
    <i name="Tr[quadrupol]"> -74931.71668395 </i>
    <i name="Echarged">      0.00000000 </i>
    <i name="Edipol_quadrupol">      0.00000000 </i>
    <i name="Eion">      0.00000000 </i>
   </dipole>
   <energy>
    <i name="e_fr_energy">   -703.69126688 </i>
    <i name="e_wo_entrp">   -703.68381943 </i>
    <i name="e_0_energy">   -703.68754316 </i>
   </energy>
  </scstep>
  <scstep>
   <time name="dav">  574.50  579.84</time>
   <time name="total">  581.86  587.29</time>
   <dipole>
    <v name="dipole">      0.00000000       0.00000000       1.26509444 </v>
    <i name="Tr[quadrupol]"> -74933.41946767 </i>
    <i name="Echarged">      0.00000000 </i>
    <i name="Edipol_quadrupol">      0.00000000 </i>
    <i name="Eion">      0.00000000 </i>
   </dipole>
   <energy>
    <i name="e_fr_energy">   -703.69640643 </i>
    <i name="e_wo_entrp">   -703.68896660 </i>
    <i name="e_0_energy">   -703.69268651 </i>
   </energy>
  </scstep>
  <scstep>
   <time name="dav">  579.22  585.19</time>
   <time name="total">  585.78  591.82</time>
   <dipole>
    <v name="dipole">      0.00000000       0.00000000       1.28809435 </v>
    <i name="Tr[quadrupol]"> -74935.41187848 </i>
    <i name="Echarged">      0.00000000 </i>
    <i name="Edipol_quadrupol">      0.00000000 </i>
    <i name="Eion">      0.00000000 </i>
   </dipole>
   <energy>
    <i name="e_fr_energy">   -703.70231171 </i>
    <i name="e_wo_entrp">   -703.69486565 </i>
    <i name="e_0_energy">   -703.69858868 </i>
   </energy>
  </scstep>
  <scstep>
   <time name="dav">  574.21  578.51</time>
   <time name="total">  587.37  591.85</time>
   <dipole>
    <v name="dipole">      0.00000000       0.00000000       1.30249731 </v>
    <i name="Tr[quadrupol]"> -74936.19246587 </i>
    <i name="Echarged">      0.00000000 </i>
    <i name="Edipol_quadrupol">      0.00000000 </i>
    <i name="Eion">      0.00000000 </i>
   </dipole>
   <energy>
    <i name="e_fr_energy">   -703.70439078 </i>
    <i name="e_wo_entrp">   -703.69694454 </i>
    <i name="e_0_energy">   -703.70066766 </i>
   </energy>
  </scstep>
  <scstep>
   <time name="dav">  562.59  568.95</time>
   <time name="total">  570.46  576.83</time>
   <dipole>
    <v name="dipole">      0.00000000       0.00000000       1.31880001 </v>
    <i name="Tr[quadrupol]"> -74937.14670417 </i>
    <i name="Echarged">      0.00000000 </i>
    <i name="Edipol_quadrupol">      0.00000000 </i>
    <i name="Eion">      0.00000000 </i>
   </dipole>
   <energy>
    <i name="e_fr_energy">   -703.70542588 </i>
    <i name="e_wo_entrp">   -703.69798042 </i>
    <i name="e_0_energy">   -703.70170315 </i>
   </energy>
  </scstep>
  <scstep>
   <time name="dav">  570.55  572.46</time>
   <time name="total">  578.41  580.34</time>
   <dipole>
    <v name="dipole">      0.00000000       0.00000000       1.33302038 </v>
    <i name="Tr[quadrupol]"> -74937.36527980 </i>
    <i name="Echarged">      0.00000000 </i>
    <i name="Edipol_quadrupol">      0.00000000 </i>
    <i name="Eion">      0.00000000 </i>
   </dipole>
   <energy>
    <i name="e_fr_energy">   -703.70595816 </i>
    <i name="e_wo_entrp">   -703.69851206 </i>
    <i name="e_0_energy">   -703.70223511 </i>
   </energy>
  </scstep>
  <scstep>
   <time name="dav">  602.78  606.79</time>
   <time name="total">  610.82  614.92</time>
   <dipole>
    <v name="dipole">      0.00000000       0.00000000       1.34660524 </v>
    <i name="Tr[quadrupol]"> -74937.57668296 </i>
    <i name="Echarged">      0.00000000 </i>
    <i name="Edipol_quadrupol">      0.00000000 </i>
    <i name="Eion">      0.00000000 </i>
   </dipole>
   <energy>
    <i name="e_fr_energy">   -703.70647834 </i>
    <i name="e_wo_entrp">   -703.69903187 </i>
    <i name="e_0_energy">   -703.70275510 </i>
   </energy>
  </scstep>
  <scstep>
   <time name="dav">  565.16  570.23</time>
   <time name="total">  571.68  576.81</time>
   <dipole>
    <v name="dipole">      0.00000000       0.00000000       1.36453094 </v>
    <i name="Tr[quadrupol]"> -74937.62661833 </i>
    <i name="Echarged">      0.00000000 </i>
    <i name="Edipol_quadrupol">      0.00000000 </i>
    <i name="Eion">      0.00000000 </i>
   </dipole>
   <energy>
    <i name="e_fr_energy">   -703.70692609 </i>
    <i name="e_wo_entrp">   -703.69947794 </i>
    <i name="e_0_energy">   -703.70320201 </i>
   </energy>
  </scstep>
  <scstep>
   <time name="dav">  541.48  546.59</time>
   <time name="total">  548.06  553.18</time>
   <dipole>
    <v name="dipole">      0.00000000       0.00000000       1.37390137 </v>
    <i name="Tr[quadrupol]"> -74937.71710244 </i>
    <i name="Echarged">      0.00000000 </i>
    <i name="Edipol_quadrupol">      0.00000000 </i>
    <i name="Eion">      0.00000000 </i>
   </dipole>
   <energy>
    <i name="e_fr_energy">   -703.70707675 </i>
    <i name="e_wo_entrp">   -703.69962709 </i>
    <i name="e_0_energy">   -703.70335192 </i>
   </energy>
  </scstep>
  <scstep>
   <time name="dav">  553.43  558.76</time>
   <time name="total">  560.98  566.37</time>
   <dipole>
    <v name="dipole">      0.00000000       0.00000000       1.38392094 </v>
    <i name="Tr[quadrupol]"> -74937.83625318 </i>
    <i name="Echarged">      0.00000000 </i>
    <i name="Edipol_quadrupol">      0.00000000 </i>
    <i name="Eion">      0.00000000 </i>
   </dipole>
   <energy>
    <i name="e_fr_energy">   -703.70726398 </i>
    <i name="e_wo_entrp">   -703.69981301 </i>
    <i name="e_0_energy">   -703.70353850 </i>
   </energy>
  </scstep>
  <scstep>
   <time name="dav">  521.27  526.79</time>
   <time name="total">  527.75  533.37</time>
   <dipole>
    <v name="dipole">      0.00000000       0.00000000       1.38720436 </v>
    <i name="Tr[quadrupol]"> -74937.69304764 </i>
    <i name="Echarged">      0.00000000 </i>
    <i name="Edipol_quadrupol">      0.00000000 </i>
    <i name="Eion">      0.00000000 </i>
   </dipole>
   <energy>
    <i name="e_fr_energy">   -703.70735208 </i>
    <i name="e_wo_entrp">   -703.69990148 </i>
    <i name="e_0_energy">   -703.70362678 </i>
   </energy>
  </scstep>
  <scstep>
   <time name="dav">  619.88  622.95</time>
   <time name="total">  626.52  629.60</time>
   <dipole>
    <v name="dipole">      0.00000000       0.00000000       1.39398759 </v>
    <i name="Tr[quadrupol]"> -74940.07705993 </i>
    <i name="Echarged">      0.00000000 </i>
    <i name="Edipol_quadrupol">      0.00000000 </i>
    <i name="Eion">      0.00000000 </i>
   </dipole>
   <energy>
    <i name="e_fr_energy">   -703.70739268 </i>
    <i name="e_wo_entrp">   -703.69994236 </i>
    <i name="e_0_energy">   -703.70366752 </i>
   </energy>
  </scstep>
  <scstep>
   <time name="dav">  510.57  515.91</time>
   <time name="total">  517.13  522.51</time>
   <dipole>
    <v name="dipole">      0.00000000       0.00000000       1.39300797 </v>
    <i name="Tr[quadrupol]"> -74940.99658546 </i>
    <i name="Echarged">      0.00000000 </i>
    <i name="Edipol_quadrupol">      0.00000000 </i>
    <i name="Eion">      0.00000000 </i>
   </dipole>
   <energy>
    <i name="e_fr_energy">   -703.70740314 </i>
    <i name="e_wo_entrp">   -703.69995298 </i>
    <i name="e_0_energy">   -703.70367806 </i>
   </energy>
  </scstep>
  <scstep>
   <time name="dav">  505.83  509.70</time>
   <time name="total">  512.41  516.29</time>
   <dipole>
    <v name="dipole">      0.00000000       0.00000000       1.38971031 </v>
    <i name="Tr[quadrupol]"> -74941.00444144 </i>
    <i name="Echarged">      0.00000000 </i>
    <i name="Edipol_quadrupol">      0.00000000 </i>
    <i name="Eion">      0.00000000 </i>
   </dipole>
   <energy>
    <i name="e_fr_energy">   -703.70741318 </i>
    <i name="e_wo_entrp">   -703.69996266 </i>
    <i name="e_0_energy">   -703.70368792 </i>
   </energy>
  </scstep>
  <scstep>
   <time name="dav">  611.00  616.85</time>
   <time name="total">  626.05  631.92</time>
   <dipole>
    <v name="dipole">      0.00000000       0.00000000       1.38967476 </v>
    <i name="Tr[quadrupol]"> -74941.00364929 </i>
    <i name="Echarged">      0.00000000 </i>
    <i name="Edipol_quadrupol">      0.00000000 </i>
    <i name="Eion">      0.00000000 </i>
   </dipole>
   <energy>
    <i name="e_fr_energy">   -703.70741470 </i>
    <i name="e_wo_entrp">   -703.69996376 </i>
    <i name="e_0_energy">   -703.70368923 </i>
   </energy>
  </scstep>
  <scstep>
   <time name="dav">  607.07  611.63</time>
   <time name="total">  614.23  618.85</time>
   <dipole>
    <v name="dipole">      0.00000000       0.00000000       1.38959884 </v>
    <i name="Tr[quadrupol]"> -74941.00393869 </i>
    <i name="Echarged">      0.00000000 </i>
    <i name="Edipol_quadrupol">      0.00000000 </i>
    <i name="Eion">      0.00000000 </i>
   </dipole>
   <energy>
    <i name="e_fr_energy">   -703.70741526 </i>
    <i name="e_wo_entrp">   -703.69996425 </i>
    <i name="e_0_energy">   -703.70368976 </i>
   </energy>
  </scstep>
  <scstep>
   <time name="dav">  453.84  457.91</time>
   <time name="total">  460.88  465.03</time>
   <dipole>
    <v name="dipole">      0.00000000       0.00000000       1.38987170 </v>
    <i name="Tr[quadrupol]"> -74941.18460135 </i>
    <i name="Echarged">      0.00000000 </i>
    <i name="Edipol_quadrupol">      0.00000000 </i>
    <i name="Eion">      0.00000000 </i>
   </dipole>
   <energy>
    <i name="e_fr_energy">   -703.70741493 </i>
    <i name="e_wo_entrp">   -703.69996396 </i>
    <i name="e_0_energy">   -703.70368944 </i>
   </energy>
  </scstep>
  <scstep>
   <time name="dav">  453.79  458.93</time>
   <time name="total">  460.31  465.51</time>
   <dipole>
    <v name="dipole">      0.00000000       0.00000000       1.39014752 </v>
    <i name="Tr[quadrupol]"> -74941.36609474 </i>
    <i name="Echarged">      0.00000000 </i>
    <i name="Edipol_quadrupol">      0.00000000 </i>
    <i name="Eion">      0.00000000 </i>
   </dipole>
   <energy>
    <i name="e_fr_energy">   -703.70741524 </i>
    <i name="e_wo_entrp">   -703.69996431 </i>
    <i name="e_0_energy">   -703.70368978 </i>
   </energy>
  </scstep>
  <scstep>
   <time name="dav">  574.90  577.59</time>
   <time name="total">  582.04  584.74</time>
   <dipole>
    <v name="dipole">      0.00000000       0.00000000       1.38958397 </v>
    <i name="Tr[quadrupol]"> -74941.36818664 </i>
    <i name="Echarged">      0.00000000 </i>
    <i name="Edipol_quadrupol">      0.00000000 </i>
    <i name="Eion">      0.00000000 </i>
   </dipole>
   <energy>
    <i name="e_fr_energy">   -703.70741655 </i>
    <i name="e_wo_entrp">   -703.69996553 </i>
    <i name="e_0_energy">   -703.70369104 </i>
   </energy>
  </scstep>
  <scstep>
   <time name="dav">  451.40  452.51</time>
   <time name="total">  460.07  461.22</time>
   <dipole>
    <v name="dipole">      0.00000000       0.00000000       1.38958967 </v>
    <i name="Tr[quadrupol]"> -74941.36816222 </i>
    <i name="Echarged">      0.00000000 </i>
    <i name="Edipol_quadrupol">      0.00000000 </i>
    <i name="Eion">      0.00000000 </i>
   </dipole>
   <energy>
    <i name="e_fr_energy">   -703.70741654 </i>
    <i name="e_wo_entrp">   -703.69996552 </i>
    <i name="e_0_energy">   -703.70369103 </i>
   </energy>
  </scstep>
  <scstep>
   <time name="dav">  345.39  346.15</time>
   <time name="total">  351.95  352.73</time>
   <dipole>
    <v name="dipole">      0.00000000       0.00000000       1.38957037 </v>
    <i name="Tr[quadrupol]"> -74941.36823893 </i>
    <i name="Echarged">      0.00000000 </i>
    <i name="Edipol_quadrupol">      0.00000000 </i>
    <i name="Eion">      0.00000000 </i>
   </dipole>
   <energy>
    <i name="e_fr_energy">   -703.70741657 </i>
    <i name="e_wo_entrp">   -703.69996556 </i>
    <i name="e_0_energy">   -703.70369107 </i>
   </energy>
  </scstep>
  <scstep>
   <time name="dav">  330.89  331.66</time>
   <time name="total">  331.52  332.30</time>
   <dipole>
    <v name="dipole">      0.00000000       0.00000000       1.38957915 </v>
    <i name="Tr[quadrupol]"> -74941.36818670 </i>
    <i name="Echarged">      0.00000000 </i>
    <i name="Edipol_quadrupol">      0.00000000 </i>
    <i name="Eion">      0.00000000 </i>
   </dipole>
   <energy>
    <i name="alphaZ">   1795.18003210 </i>
    <i name="ewald"> 318676.17720449 </i>
    <i name="hartreedc">-467513.32194212 </i>
    <i name="XCdc">   3224.69025596 </i>
    <i name="pawpsdc"> 119805.15400966 </i>
    <i name="pawaedc">-118011.36278786 </i>
    <i name="eentropy">     -0.00745103 </i>
    <i name="bandstr"> -15379.13943843 </i>
    <i name="atom"> 156698.92270065 </i>
    <i name="e_fr_energy">   -703.70741657 </i>
    <i name="e_wo_entrp">   -703.69996554 </i>
    <i name="e_0_energy">   -703.70369106 </i>
   </energy>
  </scstep>
  <structure>
   <crystal>
    <varray name="basis" >
     <v>      17.03433609       0.00000000       0.00000000 </v>
     <v>      -8.51716805      14.75216779       0.00000000 </v>
     <v>       0.00000000       0.00000000      31.29407310 </v>
    </varray>
    <i name="volume">   7863.99353597 </i>
    <varray name="rec_basis" >
     <v>       0.05870496       0.03389332       0.00000000 </v>
     <v>       0.00000000       0.06778665       0.00000000 </v>
     <v>       0.00000000       0.00000000       0.03195493 </v>
    </varray>
   </crystal>
   <varray name="positions" >
    <v>       0.04841610       0.39848906       0.99523062 </v>
    <v>       0.04889542       0.89944771       0.99568253 </v>
    <v>       0.54889542       0.39944771       0.99568253 </v>
    <v>       0.54889542       0.89944771       0.99568253 </v>
    <v>       0.35055229       0.39944771       0.99568253 </v>
    <v>       0.35055229       0.89944771       0.99568253 </v>
    <v>       0.85055229       0.39944771       0.99568253 </v>
    <v>       0.85055229       0.89944771       0.99568253 </v>
    <v>       0.35055229       0.20110457       0.99568253 </v>
    <v>       0.35055229       0.70110457       0.99568253 </v>
    <v>       0.85055229       0.20110457       0.99568253 </v>
    <v>       0.85055229       0.70110457       0.99568253 </v>
    <v>       0.02661586       0.05323172       0.99490245 </v>
    <v>       0.02661586       0.55323172       0.99490245 </v>
    <v>       0.52661586       0.05323172       0.99490245 </v>
    <v>       0.52661586       0.55323172       0.99490245 </v>
    <v>       0.19676828       0.22338414       0.99490245 </v>
    <v>       0.19676828       0.72338414       0.99490245 </v>
    <v>       0.69676828       0.22338414       0.99490245 </v>
    <v>       0.69676828       0.72338414       0.99490245 </v>
    <v>       0.25000000       0.00000000       0.99493075 </v>
    <v>       0.25000000       0.50000000       0.99493075 </v>
    <v>       0.75000000       0.00000000       0.99493075 </v>
    <v>       0.75000000       0.50000000       0.99493075 </v>
    <v>       0.02661586       0.22338414       0.99490245 </v>
    <v>       0.02661586       0.72338414       0.99490245 </v>
    <v>       0.52661586       0.22338414       0.99490245 </v>
    <v>       0.52661586       0.72338414       0.99490245 </v>
    <v>       0.16687125       0.33374251       0.11114905 </v>
    <v>       0.16687125       0.83374251       0.11114905 </v>
    <v>       0.66687125       0.33374251       0.11114905 </v>
    <v>       0.66687125       0.83374251       0.11114905 </v>
    <v>       0.41625749       0.08312875       0.11114905 </v>
    <v>       0.41625749       0.58312875       0.11114905 </v>
    <v>       0.91625749       0.08312875       0.11114905 </v>
    <v>       0.91625749       0.58312875       0.11114905 </v>
    <v>       0.41666666       0.33333334       0.10951073 </v>
    <v>       0.41666666       0.83333334       0.10951073 </v>
    <v>       0.91666666       0.33333334       0.10951073 </v>
    <v>       0.91666666       0.83333334       0.10951073 </v>
    <v>       0.16687125       0.08312875       0.11114905 </v>
    <v>       0.16687125       0.58312875       0.11114905 </v>
    <v>       0.66687125       0.08312875       0.11114905 </v>
    <v>       0.66687125       0.58312875       0.11114905 </v>
    <v>       0.33333334       0.16666667       0.22222222 </v>
    <v>       0.33333334       0.66666667       0.22222222 </v>
    <v>       0.83333334       0.16666667       0.22222222 </v>
    <v>       0.83333334       0.66666667       0.22222222 </v>
    <v>       0.08333331       0.41666666       0.22222222 </v>
    <v>       0.08333331       0.91666666       0.22222222 </v>
    <v>       0.58333331       0.41666666       0.22222222 </v>
    <v>       0.58333331       0.91666666       0.22222222 </v>
    <v>       0.08333331       0.16666669       0.22222222 </v>
    <v>       0.08333331       0.66666669       0.22222222 </v>
    <v>       0.58333331       0.16666669       0.22222222 </v>
    <v>       0.58333331       0.66666669       0.22222222 </v>
    <v>       0.33333334       0.41666666       0.22222222 </v>
    <v>       0.33333334       0.91666666       0.22222222 </v>
    <v>       0.83333334       0.41666666       0.22222222 </v>
    <v>       0.83333334       0.91666666       0.22222222 </v>
    <v>       0.00000000       0.00000000       0.33333334 </v>
    <v>       0.00000000       0.50000000       0.33333334 </v>
    <v>       0.50000000       0.00000000       0.33333334 </v>
    <v>       0.50000000       0.50000000       0.33333334 </v>
    <v>       0.25000000       0.25000000       0.33333334 </v>
    <v>       0.25000000       0.75000000       0.33333334 </v>
    <v>       0.75000000       0.25000000       0.33333334 </v>
    <v>       0.75000000       0.75000000       0.33333334 </v>
    <v>       0.25000000       0.00000000       0.33333334 </v>
    <v>       0.25000000       0.50000000       0.33333334 </v>
    <v>       0.75000000       0.00000000       0.33333334 </v>
    <v>       0.75000000       0.50000000       0.33333334 </v>
    <v>       0.00000000       0.25000000       0.33333334 </v>
    <v>       0.00000000       0.75000000       0.33333334 </v>
    <v>       0.50000000       0.25000000       0.33333334 </v>
    <v>       0.50000000       0.75000000       0.33333334 </v>
    <v>       0.16666667       0.33333334       0.44444445 </v>
    <v>       0.16666667       0.83333334       0.44444445 </v>
    <v>       0.66666667       0.33333334       0.44444445 </v>
    <v>       0.66666667       0.83333334       0.44444445 </v>
    <v>       0.41666666       0.08333334       0.44444445 </v>
    <v>       0.41666666       0.58333334       0.44444445 </v>
    <v>       0.91666666       0.08333334       0.44444445 </v>
    <v>       0.91666666       0.58333334       0.44444445 </v>
    <v>       0.41666666       0.33333334       0.44444445 </v>
    <v>       0.41666666       0.83333334       0.44444445 </v>
    <v>       0.91666666       0.33333334       0.44444445 </v>
    <v>       0.91666666       0.83333334       0.44444445 </v>
    <v>       0.16666667       0.08333334       0.44444445 </v>
    <v>       0.16666667       0.58333334       0.44444445 </v>
    <v>       0.66666667       0.08333334       0.44444445 </v>
    <v>       0.66666667       0.58333334       0.44444445 </v>
    <v>       0.00060404       0.00120809       0.07927097 </v>
    <v>       0.00060404       0.50120809       0.07927097 </v>
    <v>       0.50060404       0.00120809       0.07927097 </v>
    <v>       0.50060404       0.50120809       0.07927097 </v>
    <v>       0.00060404       0.24939596       0.07927100 </v>
    <v>       0.00060404       0.74939596       0.07927100 </v>
[...]
       <r>    -6.2424    17.3941  1058.3835 </r>
       <r>    -6.1718    18.7526  1059.7073 </r>
       <r>    -6.1012     1.4720  1059.8112 </r>
       <r>    -6.0306    12.7087  1060.7083 </r>
       <r>    -5.9600    65.3573  1065.3220 </r>
       <r>    -5.8894    89.1156  1071.6128 </r>
       <r>    -5.8188    63.0849  1076.0660 </r>
       <r>    -5.7482    44.0808  1079.1777 </r>
       <r>    -5.6776    58.6002  1083.3144 </r>
       <r>    -5.6070    71.8830  1088.3887 </r>
       <r>    -5.5365    87.7698  1094.5845 </r>
       <r>    -5.4659    91.0044  1101.0086 </r>
       <r>    -5.3953    65.3230  1105.6198 </r>
       <r>    -5.3247   112.5927  1113.5678 </r>
       <r>    -5.2541   128.3816  1122.6305 </r>
       <r>    -5.1835   109.4317  1130.3554 </r>
       <r>    -5.1129   103.1099  1137.6340 </r>
       <r>    -5.0423    69.2070  1142.5194 </r>
       <r>    -4.9717    47.0979  1145.8441 </r>
       <r>    -4.9011    79.5916  1151.4626 </r>
       <r>    -4.8305    77.5939  1156.9400 </r>
       <r>    -4.7599    58.5489  1161.0731 </r>
       <r>    -4.6894    77.9260  1166.5740 </r>
       <r>    -4.6188    65.1199  1171.1709 </r>
       <r>    -4.5482    68.7947  1176.0272 </r>
       <r>    -4.4776    39.9566  1178.8477 </r>
       <r>    -4.4070    12.1988  1179.7089 </r>
       <r>    -4.3364    46.9932  1183.0262 </r>
       <r>    -4.2658    26.1318  1184.8709 </r>
       <r>    -4.1952    20.8276  1186.3411 </r>
       <r>    -4.1246    12.8141  1187.2457 </r>
       <r>    -4.0540    15.2386  1188.3214 </r>
       <r>    -3.9834    14.0162  1189.3108 </r>
       <r>    -3.9129     4.9489  1189.6601 </r>
       <r>    -3.8423    25.9578  1191.4925 </r>
       <r>    -3.7717    58.1471  1195.5972 </r>
       <r>    -3.7011    41.5700  1198.5317 </r>
       <r>    -3.6305    39.7094  1201.3348 </r>
       <r>    -3.5599    20.2441  1202.7639 </r>
       <r>    -3.4893    18.6731  1204.0820 </r>
       <r>    -3.4187    27.4818  1206.0220 </r>
       <r>    -3.3481    29.2220  1208.0848 </r>
       <r>    -3.2775    22.9890  1209.7076 </r>
       <r>    -3.2069    51.7629  1213.3616 </r>
       <r>    -3.1364   139.2486  1223.1914 </r>
       <r>    -3.0658    99.5060  1230.2156 </r>
       <r>    -2.9952    74.5363  1235.4772 </r>
       <r>    -2.9246    23.4743  1237.1343 </r>
       <r>    -2.8540    40.6923  1240.0068 </r>
       <r>    -2.7834    42.4864  1243.0060 </r>
       <r>    -2.7128    61.3925  1247.3398 </r>
       <r>    -2.6422    56.0456  1251.2961 </r>
       <r>    -2.5716    70.9596  1256.3052 </r>
       <r>    -2.5010    93.9111  1262.9345 </r>
       <r>    -2.4304   133.4065  1272.3518 </r>
       <r>    -2.3598   138.6962  1282.1426 </r>
       <r>    -2.2893   108.2721  1289.7856 </r>
       <r>    -2.2187    68.3212  1294.6085 </r>
       <r>    -2.1481    69.9300  1299.5449 </r>
       <r>    -2.0775    86.9376  1305.6820 </r>
       <r>    -2.0069    98.5721  1312.6403 </r>
       <r>    -1.9363   123.0665  1321.3277 </r>
       <r>    -1.8657   150.2701  1331.9354 </r>
       <r>    -1.7951   139.5569  1341.7869 </r>
       <r>    -1.7245   141.6857  1351.7887 </r>
       <r>    -1.6539   112.8587  1359.7555 </r>
       <r>    -1.5833   120.1255  1368.2353 </r>
       <r>    -1.5128   162.7320  1379.7228 </r>
       <r>    -1.4422   132.7402  1389.0931 </r>
       <r>    -1.3716    58.3635  1393.2130 </r>
       <r>    -1.3010    98.4458  1400.1624 </r>
       <r>    -1.2304   110.0051  1407.9278 </r>
       <r>    -1.1598   120.7786  1416.4537 </r>
       <r>    -1.0892   129.0567  1425.5640 </r>
       <r>    -1.0186   138.5787  1435.3464 </r>
       <r>    -0.9480   112.5024  1443.2881 </r>
       <r>    -0.8774   104.4085  1450.6584 </r>
       <r>    -0.8068    89.8817  1457.0033 </r>
       <r>    -0.7362    97.5082  1463.8865 </r>
       <r>    -0.6657   108.4760  1471.5440 </r>
       <r>    -0.5951   128.4426  1480.6109 </r>
       <r>    -0.5245   114.6122  1488.7015 </r>
       <r>    -0.4539    96.6971  1495.5275 </r>
       <r>    -0.3833    63.4247  1500.0047 </r>
       <r>    -0.3127    99.8649  1507.0543 </r>
       <r>    -0.2421    73.4214  1512.2372 </r>
       <r>    -0.1715    45.4816  1515.4478 </r>
       <r>    -0.1009    34.0861  1517.8540 </r>
       <r>    -0.0303    45.2268  1521.0466 </r>
       <r>     0.0403    26.3709  1522.9081 </r>
       <r>     0.1108    31.9522  1525.1637 </r>
       <r>     0.1814    18.6131  1526.4776 </r>
       <r>     0.2520    22.0727  1528.0357 </r>
       <r>     0.3226    20.1846  1529.4606 </r>
       <r>     0.3932    24.7801  1531.2099 </r>
       <r>     0.4638    18.4127  1532.5096 </r>
       <r>     0.5344    21.8692  1534.0534 </r>
       <r>     0.6050    14.8672  1535.1029 </r>
       <r>     0.6756     4.2037  1535.3996 </r>
       <r>     0.7462     2.1570  1535.5519 </r>
       <r>     0.8168     0.6300  1535.5964 </r>
       <r>     0.8873     4.3770  1535.9054 </r>
       <r>     0.9579     9.8156  1536.5982 </r>
       <r>     1.0285    27.6986  1538.5535 </r>
       <r>     1.0991    30.9881  1540.7410 </r>
       <r>     1.1697    18.6409  1542.0569 </r>
       <r>     1.2403    10.7085  1542.8128 </r>
       <r>     1.3109     1.5371  1542.9213 </r>
       <r>     1.3815    13.0032  1543.8392 </r>
       <r>     1.4521    59.6964  1548.0533 </r>
       <r>     1.5227    52.0681  1551.7288 </r>
       <r>     1.5933    17.6099  1552.9719 </r>
       <r>     1.6639    30.4782  1555.1234 </r>
       <r>     1.7344    49.3852  1558.6096 </r>
       <r>     1.8050    59.2463  1562.7919 </r>
       <r>     1.8756    53.3280  1566.5563 </r>
       <r>     1.9462    57.4903  1570.6147 </r>
       <r>     2.0168    35.2307  1573.1016 </r>
       <r>     2.0874    43.0283  1576.1391 </r>
       <r>     2.1580    32.5644  1578.4378 </r>
       <r>     2.2286    71.4339  1583.4804 </r>
       <r>     2.2992    85.9543  1589.5480 </r>
       <r>     2.3698   110.0682  1597.3179 </r>
       <r>     2.4404   118.4201  1605.6773 </r>
       <r>     2.5109    86.2044  1611.7626 </r>
       <r>     2.5815   102.8866  1619.0255 </r>
       <r>     2.6521   119.0414  1627.4287 </r>
       <r>     2.7227    95.8851  1634.1974 </r>
       <r>     2.7933   115.2074  1642.3300 </r>
       <r>     2.8639   120.1177  1650.8093 </r>
       <r>     2.9345   120.2410  1659.2972 </r>
       <r>     3.0051   114.8589  1667.4053 </r>
       <r>     3.0757   161.8973  1678.8338 </r>
       <r>     3.1463   108.8405  1686.5170 </r>
       <r>     3.2169    97.7024  1693.4139 </r>
       <r>     3.2874    79.2202  1699.0061 </r>
       <r>     3.3580    86.5217  1705.1138 </r>
       <r>     3.4286   111.6799  1712.9974 </r>
       <r>     3.4992    88.1080  1719.2171 </r>
       <r>     3.5698    74.0605  1724.4451 </r>
       <r>     3.6404    82.6415  1730.2789 </r>
       <r>     3.7110    57.4416  1734.3337 </r>
       <r>     3.7816    73.3974  1739.5149 </r>
       <r>     3.8522    81.3448  1745.2572 </r>
       <r>     3.9228   107.3634  1752.8361 </r>
       <r>     3.9934   120.1889  1761.3204 </r>
       <r>     4.0640   103.7860  1768.6467 </r>
       <r>     4.1345    86.9881  1774.7873 </r>
       <r>     4.2051    83.2724  1780.6656 </r>
       <r>     4.2757    97.2852  1787.5331 </r>
       <r>     4.3463    63.0326  1791.9827 </r>
       <r>     4.4169    89.4816  1798.2993 </r>
       <r>     4.4875    99.8739  1805.3495 </r>
       <r>     4.5581    81.7412  1811.1197 </r>
       <r>     4.6287   128.8778  1820.2173 </r>
       <r>     4.6993   131.8195  1829.5226 </r>
       <r>     4.7699   123.5370  1838.2433 </r>
       <r>     4.8405   108.2374  1845.8839 </r>
       <r>     4.9110    28.6690  1847.9076 </r>
       <r>     4.9816     1.3043  1847.9997 </r>
       <r>     5.0522     0.0041  1848.0000 </r>
       <r>     5.1228     0.0000  1848.0000 </r>
       <r>     5.1934     0.0000  1848.0000 </r>
       <r>     5.2640     0.0000  1848.0000 </r>
       <r>     5.3346     0.0000  1848.0000 </r>
       <r>     5.4052     0.0000  1848.0000 </r>
       <r>     5.4758     0.0000  1848.0000 </r>
       <r>     5.5464     0.0000  1848.0000 </r>
       <r>     5.6170     0.0000  1848.0000 </r>
       <r>     5.6876     0.0000  1848.0000 </r>
       <r>     5.7581     0.0000  1848.0000 </r>
       <r>     5.8287     0.0000  1848.0000 </r>
      </set>
     </set>
    </array>
   </total>
  </dos>
 </calculation>
 <structure name="finalpos" >
  <crystal>
   <varray name="basis" >
    <v>      17.03433609       0.00000000       0.00000000 </v>
    <v>      -8.51716805      14.75216779       0.00000000 </v>
    <v>       0.00000000       0.00000000      31.29407310 </v>
   </varray>
   <i name="volume">   7863.99353597 </i>
   <varray name="rec_basis" >
    <v>       0.05870496       0.03389332       0.00000000 </v>
    <v>       0.00000000       0.06778665       0.00000000 </v>
    <v>       0.00000000       0.00000000       0.03195493 </v>
   </varray>
  </crystal>
  <varray name="positions" >
   <v>       0.04841610       0.39848906       0.99523062 </v>
   <v>       0.04889542       0.89944771       0.99568253 </v>
   <v>       0.54889542       0.39944771       0.99568253 </v>
   <v>       0.54889542       0.89944771       0.99568253 </v>
   <v>       0.35055229       0.39944771       0.99568253 </v>
   <v>       0.35055229       0.89944771       0.99568253 </v>
   <v>       0.85055229       0.39944771       0.99568253 </v>
   <v>       0.85055229       0.89944771       0.99568253 </v>
   <v>       0.35055229       0.20110457       0.99568253 </v>
   <v>       0.35055229       0.70110457       0.99568253 </v>
   <v>       0.85055229       0.20110457       0.99568253 </v>
   <v>       0.85055229       0.70110457       0.99568253 </v>
   <v>       0.02661586       0.05323172       0.99490245 </v>
   <v>       0.02661586       0.55323172       0.99490245 </v>
   <v>       0.52661586       0.05323172       0.99490245 </v>
   <v>       0.52661586       0.55323172       0.99490245 </v>
   <v>       0.19676828       0.22338414       0.99490245 </v>
   <v>       0.19676828       0.72338414       0.99490245 </v>
   <v>       0.69676828       0.22338414       0.99490245 </v>
   <v>       0.69676828       0.72338414       0.99490245 </v>
   <v>       0.25000000       0.00000000       0.99493075 </v>
   <v>       0.25000000       0.50000000       0.99493075 </v>
   <v>       0.75000000       0.00000000       0.99493075 </v>
   <v>       0.75000000       0.50000000       0.99493075 </v>
   <v>       0.02661586       0.22338414       0.99490245 </v>
   <v>       0.02661586       0.72338414       0.99490245 </v>
   <v>       0.52661586       0.22338414       0.99490245 </v>
   <v>       0.52661586       0.72338414       0.99490245 </v>
   <v>       0.16687125       0.33374251       0.11114905 </v>
   <v>       0.16687125       0.83374251       0.11114905 </v>
   <v>       0.66687125       0.33374251       0.11114905 </v>
   <v>       0.66687125       0.83374251       0.11114905 </v>
   <v>       0.41625749       0.08312875       0.11114905 </v>
   <v>       0.41625749       0.58312875       0.11114905 </v>
   <v>       0.91625749       0.08312875       0.11114905 </v>
   <v>       0.91625749       0.58312875       0.11114905 </v>
   <v>       0.41666666       0.33333334       0.10951073 </v>
   <v>       0.41666666       0.83333334       0.10951073 </v>
   <v>       0.91666666       0.33333334       0.10951073 </v>
   <v>       0.91666666       0.83333334       0.10951073 </v>
   <v>       0.16687125       0.08312875       0.11114905 </v>
   <v>       0.16687125       0.58312875       0.11114905 </v>
   <v>       0.66687125       0.08312875       0.11114905 </v>
   <v>       0.66687125       0.58312875       0.11114905 </v>
   <v>       0.33333334       0.16666667       0.22222222 </v>
   <v>       0.33333334       0.66666667       0.22222222 </v>
   <v>       0.83333334       0.16666667       0.22222222 </v>
   <v>       0.83333334       0.66666667       0.22222222 </v>
   <v>       0.08333331       0.41666666       0.22222222 </v>
   <v>       0.08333331       0.91666666       0.22222222 </v>
   <v>       0.58333331       0.41666666       0.22222222 </v>
   <v>       0.58333331       0.91666666       0.22222222 </v>
   <v>       0.08333331       0.16666669       0.22222222 </v>
   <v>       0.08333331       0.66666669       0.22222222 </v>
   <v>       0.58333331       0.16666669       0.22222222 </v>
   <v>       0.58333331       0.66666669       0.22222222 </v>
   <v>       0.33333334       0.41666666       0.22222222 </v>
   <v>       0.33333334       0.91666666       0.22222222 </v>
   <v>       0.83333334       0.41666666       0.22222222 </v>
   <v>       0.83333334       0.91666666       0.22222222 </v>
   <v>       0.00000000       0.00000000       0.33333334 </v>
   <v>       0.00000000       0.50000000       0.33333334 </v>
   <v>       0.50000000       0.00000000       0.33333334 </v>
   <v>       0.50000000       0.50000000       0.33333334 </v>
   <v>       0.25000000       0.25000000       0.33333334 </v>
   <v>       0.25000000       0.75000000       0.33333334 </v>
   <v>       0.75000000       0.25000000       0.33333334 </v>
   <v>       0.75000000       0.75000000       0.33333334 </v>
   <v>       0.25000000       0.00000000       0.33333334 </v>
   <v>       0.25000000       0.50000000       0.33333334 </v>
   <v>       0.75000000       0.00000000       0.33333334 </v>
   <v>       0.75000000       0.50000000       0.33333334 </v>
   <v>       0.00000000       0.25000000       0.33333334 </v>
   <v>       0.00000000       0.75000000       0.33333334 </v>
   <v>       0.50000000       0.25000000       0.33333334 </v>
   <v>       0.50000000       0.75000000       0.33333334 </v>
   <v>       0.16666667       0.33333334       0.44444445 </v>
   <v>       0.16666667       0.83333334       0.44444445 </v>
   <v>       0.66666667       0.33333334       0.44444445 </v>
   <v>       0.66666667       0.83333334       0.44444445 </v>
   <v>       0.41666666       0.08333334       0.44444445 </v>
   <v>       0.41666666       0.58333334       0.44444445 </v>
   <v>       0.91666666       0.08333334       0.44444445 </v>
   <v>       0.91666666       0.58333334       0.44444445 </v>
   <v>       0.41666666       0.33333334       0.44444445 </v>
   <v>       0.41666666       0.83333334       0.44444445 </v>
   <v>       0.91666666       0.33333334       0.44444445 </v>
   <v>       0.91666666       0.83333334       0.44444445 </v>
   <v>       0.16666667       0.08333334       0.44444445 </v>
   <v>       0.16666667       0.58333334       0.44444445 </v>
   <v>       0.66666667       0.08333334       0.44444445 </v>
   <v>       0.66666667       0.58333334       0.44444445 </v>
   <v>       0.00060404       0.00120809       0.07927097 </v>
   <v>       0.00060404       0.50120809       0.07927097 </v>
   <v>       0.50060404       0.00120809       0.07927097 </v>
   <v>       0.50060404       0.50120809       0.07927097 </v>
   <v>       0.00060404       0.24939596       0.07927100 </v>
   <v>       0.00060404       0.74939596       0.07927100 </v>
   <v>       0.50060404       0.24939596       0.07927100 </v>
   <v>       0.50060404       0.74939596       0.07927100 </v>
   <v>       0.25000000       0.00000000       0.08094485 </v>
   <v>       0.25000000       0.50000000       0.08094485 </v>
   <v>       0.75000000       0.00000000       0.08094485 </v>
   <v>       0.75000000       0.50000000       0.08094485 </v>
   <v>       0.24879191       0.24939596       0.07927100 </v>
   <v>       0.24879191       0.74939596       0.07927100 </v>
   <v>       0.74879191       0.24939596       0.07927100 </v>
   <v>       0.74879191       0.74939596       0.07927100 </v>
   <v>       0.16660331       0.33320661       0.19452973 </v>
   <v>       0.16660331       0.83320661       0.19452973 </v>
   <v>       0.66660331       0.33320661       0.19452973 </v>
   <v>       0.66660331       0.83320661       0.19452973 </v>
   <v>       0.16660331       0.08339670       0.19452973 </v>
   <v>       0.16660331       0.58339670       0.19452973 </v>
   <v>       0.66660331       0.08339670       0.19452973 </v>
   <v>       0.66660331       0.58339670       0.19452973 </v>
   <v>       0.41666666       0.33333334       0.19342860 </v>
   <v>       0.41666666       0.83333334       0.19342860 </v>
   <v>       0.91666666       0.33333334       0.19342860 </v>
   <v>       0.91666666       0.83333334       0.19342860 </v>
   <v>       0.41679339       0.08339670       0.19452973 </v>
   <v>       0.41679339       0.58339670       0.19452973 </v>
   <v>       0.91679339       0.08339670       0.19452973 </v>
   <v>       0.91679339       0.58339670       0.19452973 </v>
   <v>       0.33333334       0.16666667       0.30555555 </v>
   <v>       0.33333334       0.66666667       0.30555555 </v>
   <v>       0.83333334       0.16666667       0.30555555 </v>
   <v>       0.83333334       0.66666667       0.30555555 </v>
   <v>       0.33333334       0.41666666       0.30555555 </v>
   <v>       0.33333334       0.91666666       0.30555555 </v>
   <v>       0.83333334       0.41666666       0.30555555 </v>
   <v>       0.83333334       0.91666666       0.30555555 </v>
   <v>       0.08333331       0.16666669       0.30555555 </v>
   <v>       0.08333331       0.66666669       0.30555555 </v>
   <v>       0.58333331       0.16666669       0.30555555 </v>
   <v>       0.58333331       0.66666669       0.30555555 </v>
   <v>       0.08333331       0.41666666       0.30555555 </v>
   <v>       0.08333331       0.91666666       0.30555555 </v>
   <v>       0.58333331       0.41666666       0.30555555 </v>
   <v>       0.58333331       0.91666666       0.30555555 </v>
   <v>       0.00000000       0.00000000       0.41666666 </v>
   <v>       0.00000000       0.50000000       0.41666666 </v>
   <v>       0.50000000       0.00000000       0.41666666 </v>
   <v>       0.50000000       0.50000000       0.41666666 </v>
   <v>       0.00000000       0.25000000       0.41666666 </v>
   <v>       0.00000000       0.75000000       0.41666666 </v>
   <v>       0.50000000       0.25000000       0.41666666 </v>
   <v>       0.50000000       0.75000000       0.41666666 </v>
   <v>       0.25000000       0.00000000       0.41666666 </v>
   <v>       0.25000000       0.50000000       0.41666666 </v>
   <v>       0.75000000       0.00000000       0.41666666 </v>
   <v>       0.75000000       0.50000000       0.41666666 </v>
   <v>       0.25000000       0.25000000       0.41666666 </v>
   <v>       0.25000000       0.75000000       0.41666666 </v>
   <v>       0.75000000       0.25000000       0.41666666 </v>
   <v>       0.75000000       0.75000000       0.41666666 </v>
   <v>       0.16666667       0.33333334       0.50007080 </v>
   <v>       0.16666667       0.83333334       0.50007080 </v>
   <v>       0.66666667       0.33333334       0.50007080 </v>
   <v>       0.66666667       0.83333334       0.50007080 </v>
   <v>       0.16666667       0.08333334       0.50007080 </v>
   <v>       0.16666667       0.58333334       0.50007080 </v>
   <v>       0.66666667       0.08333334       0.50007080 </v>
   <v>       0.66666667       0.58333334       0.50007080 </v>
   <v>       0.41666666       0.33333334       0.50007080 </v>
   <v>       0.41666666       0.83333334       0.50007080 </v>
   <v>       0.91666666       0.33333334       0.50007080 </v>
   <v>       0.91666666       0.83333334       0.50007080 </v>
   <v>       0.41666666       0.08333334       0.50007080 </v>
   <v>       0.41666666       0.58333334       0.50007080 </v>
   <v>       0.91666666       0.08333334       0.50007080 </v>
   <v>       0.91666666       0.58333334       0.50007080 </v>
  </varray>
 </structure>
</modeling>
