<?xml version="1.0" encoding="ISO-8859-1"?>
<modeling>
 <generator>
  <i name="program" type="string">vasp </i>
  <i name="version" type="string">5.4.4.18Apr17-6-g9f103f2a35  </i>
  <i name="subversion" type="string">(build Feb 09 2021 16:27:36) complex            parallel </i>
  <i name="platform" type="string">IFC15_impi </i>
  <i name="date" type="string">2021 04 29 </i>
  <i name="time" type="string">03:23:23 </i>
 </generator>
 <incar>
  <i type="int" name="ISTART">     0</i>
  <i type="string" name="PREC">a</i>
  <i type="logical" name="ADDGRID"> T  </i>
  <i type="int" name="NELM">   300</i>
  <i type="int" name="NELMIN">     5</i>
  <i type="int" name="IBRION">    -1</i>
  <i name="EDIFF">      0.00000100</i>
  <i name="ENCUT">    500.00000000</i>
  <i type="logical" name="LREAL"> F  </i>
  <i type="int" name="ISMEAR">     0</i>
  <i name="SIGMA">      0.05000000</i>
  <i type="logical" name="LWAVE"> F  </i>
  <i type="logical" name="LCHARG"> F  </i>
  <v type="int" name="KPOINT_BSE">    -1     0     0     0</v>
  <i type="int" name="NELM">   300</i>
 </incar>
 <structure name="primitive_cell" >
  <crystal>
   <varray name="basis" >
    <v>      10.28518105       0.00000000       0.00000000 </v>
    <v>       5.14259052       8.90722807       0.00000000 </v>
    <v>       0.00000000       0.00000000      27.79016876 </v>
   </varray>
   <i name="volume">   2545.92553775 </i>
   <varray name="rec_basis" >
    <v>       0.09722726      -0.05613419       0.00000000 </v>
    <v>       0.00000000       0.11226837       0.00000000 </v>
    <v>       0.00000000       0.00000000       0.03598395 </v>
   </varray>
  </crystal>
  <varray name="positions" >
   <v>       0.00000000       0.00000000       0.22663990 </v>
   <v>       0.16666666      -0.08333334       0.30218653 </v>
   <v>      -0.08333334       0.16666666       0.30218653 </v>
   <v>       0.25000000       0.00000000       0.22663990 </v>
   <v>       0.00000000      -0.25000000       0.22663990 </v>
   <v>       0.25000000      -0.25000000       0.22663990 </v>
   <v>      -0.25000000       0.25000000       0.22663990 </v>
   <v>       0.00000000       0.25000000       0.22663990 </v>
   <v>      -0.25000000       0.00000000       0.22663990 </v>
   <v>      -0.08333334      -0.08333334       0.30218653 </v>
   <v>       0.16666666       0.16666666       0.30218653 </v>
   <v>       0.16666666      -0.33333334       0.30218653 </v>
   <v>      -0.33333334       0.16666666       0.30218653 </v>
   <v>       0.08333333       0.08333333       0.37716320 </v>
   <v>       0.08351614      -0.16675810       0.37729758 </v>
   <v>      -0.16675810       0.08351614       0.37729758 </v>
   <v>       0.41666666      -0.08333334       0.30218653 </v>
   <v>      -0.08333334       0.41666666       0.30218653 </v>
   <v>      -0.33333334       0.41666666       0.30218653 </v>
   <v>       0.41666666      -0.33333334       0.30218653 </v>
   <v>      -0.50000000       0.25000000       0.22663990 </v>
   <v>       0.25000000       0.25000000       0.22663990 </v>
   <v>       0.25000000      -0.50000000       0.22663990 </v>
   <v>      -0.25000000      -0.50000000       0.22663990 </v>
   <v>      -0.25000000      -0.25000000       0.22663990 </v>
   <v>      -0.50000000      -0.25000000       0.22663990 </v>
   <v>      -0.08333334      -0.33333334       0.30218653 </v>
   <v>      -0.33333334      -0.08333334       0.30218653 </v>
   <v>       0.33324190      -0.16675810       0.37729758 </v>
   <v>      -0.16675810       0.33324190       0.37729758 </v>
   <v>      -0.16675810      -0.16675810       0.37729758 </v>
   <v>       0.00000000      -0.50000000       0.22663990 </v>
   <v>      -0.50000000      -0.50000000       0.22663990 </v>
   <v>      -0.50000000       0.00000000       0.22663990 </v>
   <v>      -0.41666667       0.08333333       0.37716320 </v>
   <v>       0.08333333      -0.41666667       0.37716320 </v>
   <v>       0.33324190      -0.41648386       0.37729758 </v>
   <v>      -0.41648386       0.33324190       0.37729758 </v>
   <v>       0.33324190       0.08351614       0.37729758 </v>
   <v>       0.08351614       0.33324190       0.37729758 </v>
   <v>       0.16666666       0.41666666       0.30218653 </v>
   <v>       0.41666666       0.16666666       0.30218653 </v>
   <v>       0.41666666       0.41666666       0.30218653 </v>
   <v>       0.00012997       0.00012997       0.45242342 </v>
   <v>      -0.33333334      -0.33333334       0.30218653 </v>
   <v>       0.00012997       0.24974005       0.45242342 </v>
   <v>       0.24974005       0.00012997       0.45242342 </v>
   <v>      -0.25025995       0.00012997       0.45242342 </v>
   <v>       0.00012997      -0.25025995       0.45242342 </v>
   <v>       0.25000000      -0.25000000       0.45288750 </v>
   <v>      -0.25000000       0.25000000       0.45288750 </v>
   <v>      -0.41666667      -0.41666667       0.37716320 </v>
   <v>      -0.41648386      -0.16675810       0.37729758 </v>
   <v>      -0.16675810      -0.41648386       0.37729758 </v>
   <v>       0.33324190       0.33324190       0.37729758 </v>
   <v>       0.24974005      -0.49987003       0.45242342 </v>
   <v>      -0.49987003       0.24974005       0.45242342 </v>
   <v>      -0.49987003      -0.25025995       0.45242342 </v>
   <v>      -0.25025995      -0.49987003       0.45242342 </v>
   <v>       0.25000000       0.25000000       0.45288750 </v>
   <v>      -0.25000000      -0.25000000       0.45288750 </v>
   <v>       0.00012997      -0.49987003       0.45242342 </v>
   <v>      -0.49987003       0.00012997       0.45242342 </v>
   <v>      -0.49987003      -0.49987003       0.45242342 </v>
   <v>      -0.08333334      -0.08333334      -0.47258061 </v>
   <v>      -0.08321199       0.16660598      -0.47186093 </v>
   <v>       0.16660598      -0.08321199      -0.47186093 </v>
   <v>       0.16660598       0.16660598      -0.47186093 </v>
   <v>      -0.33339402       0.16660598      -0.47186093 </v>
   <v>       0.16660598      -0.33339402      -0.47186093 </v>
   <v>       0.41666666      -0.08333334      -0.47258061 </v>
   <v>      -0.08333334       0.41666666      -0.47258061 </v>
   <v>      -0.33339402      -0.08321199      -0.47186093 </v>
   <v>      -0.08321199      -0.33339402      -0.47186093 </v>
   <v>      -0.33339402       0.41678801      -0.47186093 </v>
   <v>       0.41678801      -0.33339402      -0.47186093 </v>
   <v>       0.41666666       0.41666666      -0.47258061 </v>
   <v>       0.16660598       0.41678801      -0.47186093 </v>
   <v>       0.41678801       0.16660598      -0.47186093 </v>
   <v>      -0.33339402      -0.33339402      -0.47186093 </v>
   <v>       0.08333333       0.08333333      -0.39746661 </v>
   <v>      -0.16565471       0.08130935      -0.39679536 </v>
   <v>       0.08130935      -0.16565471      -0.39679536 </v>
   <v>      -0.16565471      -0.16565471      -0.39679536 </v>
   <v>      -0.16565471       0.33434529      -0.39679536 </v>
   <v>       0.33434529      -0.16565471      -0.39679536 </v>
   <v>       0.08210321       0.33275757      -0.39730425 </v>
   <v>      -0.41666667       0.08333333      -0.39746661 </v>
   <v>       0.08333333      -0.41666667      -0.39746661 </v>
   <v>       0.33434529       0.08130935      -0.39679536 </v>
   <v>       0.33434529      -0.41869065      -0.39679536 </v>
   <v>      -0.41869065       0.33434529      -0.39679536 </v>
   <v>      -0.41666667      -0.41666667      -0.39746661 </v>
   <v>      -0.41869065      -0.16565471      -0.39679536 </v>
   <v>      -0.16565471      -0.41869065      -0.39679536 </v>
   <v>       0.33434529       0.33434529      -0.39679536 </v>
   <v>      -0.00285352      -0.00285352      -0.31942752 </v>
   <v>       0.25000000      -0.25000000      -0.32519129 </v>
   <v>      -0.25000000       0.25000000      -0.32519129 </v>
   <v>      -0.24429296      -0.00285352      -0.31942752 </v>
   <v>      -0.00285352      -0.24429296      -0.31942752 </v>
   <v>      -0.00285352       0.25570704      -0.31942752 </v>
   <v>       0.25570704      -0.00285352      -0.31942752 </v>
   <v>       0.25000000       0.25000000      -0.32519129 </v>
   <v>      -0.25000000      -0.25000000      -0.32519129 </v>
   <v>       0.49714648      -0.24429296      -0.31942752 </v>
   <v>      -0.24429296       0.49714648      -0.31942752 </v>
   <v>       0.25570704       0.49714648      -0.31942752 </v>
   <v>       0.49714648       0.25570704      -0.31942752 </v>
   <v>      -0.00285352       0.49714648      -0.31942752 </v>
   <v>       0.49714648      -0.00285352      -0.31942752 </v>
   <v>       0.49714648       0.49714648      -0.31942752 </v>
   <v>       0.08333333       0.08333333      -0.27956112 </v>
   <v>      -0.41666667       0.08333333      -0.27956112 </v>
   <v>       0.08333333      -0.41666667      -0.27956112 </v>
   <v>      -0.41666667      -0.41666667      -0.27956112 </v>
  </varray>
 </structure>
 <varray name="primitive_index" >
  <v type="int" >        1 </v>
  <v type="int" >       22 </v>
  <v type="int" >       27 </v>
  <v type="int" >        9 </v>
  <v type="int" >        6 </v>
  <v type="int" >       14 </v>
  <v type="int" >       15 </v>
  <v type="int" >        5 </v>
  <v type="int" >       11 </v>
  <v type="int" >       32 </v>
  <v type="int" >       17 </v>
  <v type="int" >       18 </v>
  <v type="int" >       19 </v>
  <v type="int" >       33 </v>
  <v type="int" >       38 </v>
  <v type="int" >       43 </v>
  <v type="int" >       30 </v>
  <v type="int" >       31 </v>
  <v type="int" >       23 </v>
  <v type="int" >       26 </v>
  <v type="int" >        7 </v>
  <v type="int" >       13 </v>
  <v type="int" >       10 </v>
  <v type="int" >       12 </v>
  <v type="int" >       16 </v>
  <v type="int" >        8 </v>
  <v type="int" >       28 </v>
  <v type="int" >       24 </v>
  <v type="int" >       46 </v>
  <v type="int" >       47 </v>
  <v type="int" >       48 </v>
  <v type="int" >        2 </v>
  <v type="int" >        4 </v>
  <v type="int" >        3 </v>
  <v type="int" >       35 </v>
  <v type="int" >       34 </v>
  <v type="int" >       42 </v>
  <v type="int" >       39 </v>
  <v type="int" >       41 </v>
  <v type="int" >       37 </v>
  <v type="int" >       21 </v>
  <v type="int" >       25 </v>
  <v type="int" >       29 </v>
  <v type="int" >       49 </v>
  <v type="int" >       20 </v>
  <v type="int" >       53 </v>
  <v type="int" >       57 </v>
  <v type="int" >       59 </v>
  <v type="int" >       54 </v>
  <v type="int" >       62 </v>
  <v type="int" >       63 </v>
  <v type="int" >       36 </v>
  <v type="int" >       40 </v>
  <v type="int" >       44 </v>
  <v type="int" >       45 </v>
  <v type="int" >       58 </v>
  <v type="int" >       55 </v>
  <v type="int" >       56 </v>
  <v type="int" >       60 </v>
  <v type="int" >       61 </v>
  <v type="int" >       64 </v>
  <v type="int" >       50 </v>
  <v type="int" >       51 </v>
  <v type="int" >       52 </v>
  <v type="int" >       80 </v>
  <v type="int" >       75 </v>
  <v type="int" >       70 </v>
  <v type="int" >       65 </v>
  <v type="int" >       67 </v>
  <v type="int" >       66 </v>
  <v type="int" >       78 </v>
  <v type="int" >       79 </v>
  <v type="int" >       72 </v>
  <v type="int" >       76 </v>
  <v type="int" >       71 </v>
  <v type="int" >       74 </v>
  <v type="int" >       77 </v>
  <v type="int" >       69 </v>
  <v type="int" >       73 </v>
  <v type="int" >       68 </v>
  <v type="int" >       81 </v>
  <v type="int" >       91 </v>
  <v type="int" >       86 </v>
  <v type="int" >       96 </v>
  <v type="int" >       95 </v>
  <v type="int" >       94 </v>
  <v type="int" >       85 </v>
  <v type="int" >       83 </v>
  <v type="int" >       82 </v>
  <v type="int" >       89 </v>
  <v type="int" >       90 </v>
  <v type="int" >       87 </v>
  <v type="int" >       84 </v>
  <v type="int" >       88 </v>
  <v type="int" >       92 </v>
  <v type="int" >       93 </v>
  <v type="int" >      100 </v>
  <v type="int" >      110 </v>
  <v type="int" >      111 </v>
  <v type="int" >      108 </v>
  <v type="int" >      104 </v>
  <v type="int" >      103 </v>
  <v type="int" >      106 </v>
  <v type="int" >      109 </v>
  <v type="int" >      112 </v>
  <v type="int" >      102 </v>
  <v type="int" >      107 </v>
  <v type="int" >      105 </v>
  <v type="int" >      101 </v>
  <v type="int" >       99 </v>
  <v type="int" >       98 </v>
  <v type="int" >       97 </v>
  <v type="int" >      113 </v>
  <v type="int" >      115 </v>
  <v type="int" >      114 </v>
  <v type="int" >      116 </v>
 </varray>
 <kpoints>
  <generation param="Gamma">
   <v type="int" name="divisions">       4        4        1 </v>
   <v name="usershift">      0.00000000       0.00000000       0.00000000 </v>
   <v name="genvec1">      0.25000000      -0.00000000       0.00000000 </v>
   <v name="genvec2">      0.00000000       0.25000000       0.00000000 </v>
   <v name="genvec3">      0.00000000       0.00000000       1.00000000 </v>
   <v name="shift">      0.00000000       0.00000000       0.00000000 </v>
  </generation>
  <varray name="kpointlist" >
   <v>       0.00000000       0.00000000       0.00000000 </v>
   <v>       0.25000000      -0.00000000       0.00000000 </v>
   <v>       0.50000000      -0.00000000       0.00000000 </v>
   <v>       0.00000000       0.25000000       0.00000000 </v>
   <v>       0.25000000       0.25000000       0.00000000 </v>
   <v>       0.50000000       0.25000000       0.00000000 </v>
   <v>      -0.25000000       0.25000000       0.00000000 </v>
   <v>       0.00000000       0.50000000       0.00000000 </v>
   <v>       0.25000000       0.50000000       0.00000000 </v>
   <v>       0.50000000       0.50000000       0.00000000 </v>
  </varray>
  <varray name="weights" >
   <v>       0.06250000 </v>
   <v>       0.12500000 </v>
   <v>       0.06250000 </v>
   <v>       0.12500000 </v>
   <v>       0.12500000 </v>
   <v>       0.12500000 </v>
   <v>       0.12500000 </v>
   <v>       0.06250000 </v>
   <v>       0.12500000 </v>
   <v>       0.06250000 </v>
  </varray>
 </kpoints>
 <parameters>
  <separator name="general" >
   <i type="string" name="SYSTEM">unknown system</i>
   <i type="logical" name="LCOMPAT"> F  </i>
  </separator>
  <separator name="electronic" >
   <i type="string" name="PREC">a</i>
   <i name="ENMAX">    500.00000000</i>
   <i name="ENAUG">    605.39200000</i>
   <i name="EDIFF">      0.00000100</i>
   <i type="int" name="IALGO">    38</i>
   <i type="int" name="IWAVPR">    10</i>
   <i type="int" name="NBANDS">   756</i>
   <i name="NELECT">   1256.00000000</i>
   <i type="int" name="TURBO">     0</i>
   <i type="int" name="IRESTART">     0</i>
   <i type="int" name="NREBOOT">     0</i>
   <i type="int" name="NMIN">     0</i>
   <i name="EREF">      0.00000000</i>
   <separator name="electronic smearing" >
    <i type="int" name="ISMEAR">     0</i>
    <i name="SIGMA">      0.05000000</i>
    <i name="KSPACING">      0.50000000</i>
    <i type="logical" name="KGAMMA"> T  </i>
   </separator>
   <separator name="electronic projectors" >
    <i type="logical" name="LREAL"> F  </i>
    <v name="ROPT">      0.00000000      0.00000000</v>
    <i type="int" name="LMAXPAW">  -100</i>
    <i type="int" name="LMAXMIX">     2</i>
    <i type="logical" name="NLSPLINE"> F  </i>
   </separator>
   <separator name="electronic startup" >
    <i type="int" name="ISTART">     0</i>
    <i type="int" name="ICHARG">     2</i>
    <i type="int" name="INIWAV">     1</i>
   </separator>
   <separator name="electronic spin" >
    <i type="int" name="ISPIN">     1</i>
    <i type="logical" name="LNONCOLLINEAR"> F  </i>
    <v name="MAGMOM">      1.00000000      1.00000000      1.00000000      1.00000000      1.00000000      1.00000000      1.00000000      1.00000000      1.00000000      1.00000000      1.00000000      1.00000000      1.00000000      1.00000000      1.00000000      1.00000000      1.00000000      1.00000000      1.00000000      1.00000000
      1.00000000      1.00000000      1.00000000      1.00000000      1.00000000      1.00000000      1.00000000      1.00000000      1.00000000      1.00000000      1.00000000      1.00000000      1.00000000      1.00000000      1.00000000      1.00000000      1.00000000      1.00000000      1.00000000      1.00000000
      1.00000000      1.00000000      1.00000000      1.00000000      1.00000000      1.00000000      1.00000000      1.00000000      1.00000000      1.00000000      1.00000000      1.00000000      1.00000000      1.00000000      1.00000000      1.00000000      1.00000000      1.00000000      1.00000000      1.00000000
      1.00000000      1.00000000      1.00000000      1.00000000      1.00000000      1.00000000      1.00000000      1.00000000      1.00000000      1.00000000      1.00000000      1.00000000      1.00000000      1.00000000      1.00000000      1.00000000      1.00000000      1.00000000      1.00000000      1.00000000
      1.00000000      1.00000000      1.00000000      1.00000000      1.00000000      1.00000000      1.00000000      1.00000000      1.00000000      1.00000000      1.00000000      1.00000000      1.00000000      1.00000000      1.00000000      1.00000000      1.00000000      1.00000000      1.00000000      1.00000000
      1.00000000      1.00000000      1.00000000      1.00000000      1.00000000      1.00000000      1.00000000      1.00000000      1.00000000      1.00000000      1.00000000      1.00000000      1.00000000      1.00000000      1.00000000      1.00000000</v>
    <i name="NUPDOWN">     -1.00000000</i>
    <i type="logical" name="LSORBIT"> F  </i>
    <v name="SAXIS">      0.00000000      0.00000000      1.00000000</v>
    <i type="logical" name="LSPIRAL"> F  </i>
    <v name="QSPIRAL">      0.00000000      0.00000000      0.00000000</v>
    <i type="logical" name="LZEROZ"> F  </i>
   </separator>
   <separator name="electronic exchange-correlation" >
    <i type="logical" name="LASPH"> F  </i>
    <i type="logical" name="LMETAGGA"> F  </i>
   </separator>
   <separator name="electronic convergence" >
    <i type="int" name="NELM">   300</i>
    <i type="int" name="NELMDL">    -5</i>
    <i type="int" name="NELMIN">     5</i>
    <i name="ENINI">    500.00000000</i>
    <separator name="electronic convergence detail" >
     <i type="logical" name="LDIAG"> T  </i>
     <i type="logical" name="LSUBROT"> F  </i>
     <i name="WEIMIN">      0.00000000</i>
     <i name="EBREAK">      0.00000000</i>
     <i name="DEPER">      0.30000000</i>
     <i type="int" name="NRMM">     4</i>
     <i name="TIME">      0.40000000</i>
    </separator>
   </separator>
   <separator name="electronic mixer" >
    <i name="AMIX">      0.40000000</i>
    <i name="BMIX">      1.00000000</i>
    <i name="AMIN">      0.10000000</i>
    <i name="AMIX_MAG">      1.60000000</i>
    <i name="BMIX_MAG">      1.00000000</i>
    <separator name="electronic mixer details" >
     <i type="int" name="IMIX">     4</i>
     <i type="logical" name="MIXFIRST"> F  </i>
     <i type="int" name="MAXMIX">   -45</i>
     <i name="WC">    100.00000000</i>
     <i type="int" name="INIMIX">     1</i>
     <i type="int" name="MIXPRE">     1</i>
     <i type="int" name="MREMOVE">     5</i>
    </separator>
   </separator>
   <separator name="electronic dipolcorrection" >
    <i type="logical" name="LDIPOL"> F  </i>
    <i type="logical" name="LMONO"> F  </i>
    <i type="int" name="IDIPOL">     0</i>
    <i name="EPSILON">      1.00000000</i>
    <v name="DIPOL">   -100.00000000   -100.00000000   -100.00000000</v>
    <i name="EFIELD">      0.00000000</i>
   </separator>
  </separator>
  <separator name="grids" >
   <i type="int" name="NGX">    80</i>
   <i type="int" name="NGY">    80</i>
   <i type="int" name="NGZ">   210</i>
   <i type="int" name="NGXF">   160</i>
   <i type="int" name="NGYF">   160</i>
   <i type="int" name="NGZF">   420</i>
   <i type="logical" name="ADDGRID"> T  </i>
  </separator>
  <separator name="ionic" >
   <i type="int" name="NSW">     0</i>
   <i type="int" name="IBRION">    -1</i>
   <i type="int" name="MDALGO">     0</i>
   <i type="int" name="ISIF">     2</i>
   <i name="PSTRESS">      0.00000000</i>
   <i name="EDIFFG">      0.00001000</i>
   <i type="int" name="NFREE">     0</i>
   <i name="POTIM">      0.50000000</i>
   <i name="SMASS">     -3.00000000</i>
   <i name="SCALEE">      1.00000000</i>
  </separator>
  <separator name="ionic md" >
   <i name="TEBEG">      0.00010000</i>
   <i name="TEEND">      0.00010000</i>
   <i type="int" name="NBLOCK">     1</i>
   <i type="int" name="KBLOCK">     1</i>
   <i type="int" name="NPACO">   256</i>
   <i name="APACO">     16.00000000</i>
  </separator>
  <separator name="symmetry" >
   <i type="int" name="ISYM">     2</i>
   <i name="SYMPREC">      0.00001000</i>
  </separator>
  <separator name="dos" >
   <i type="int" name="LORBIT">     0</i>
   <v name="RWIGS">     -1.00000000     -1.00000000</v>
   <i type="int" name="NEDOS">   301</i>
   <i name="EMIN">     10.00000000</i>
   <i name="EMAX">    -10.00000000</i>
   <i name="EFERMI">      0.00000000</i>
  </separator>
  <separator name="writing" >
   <i type="int" name="NWRITE">     2</i>
   <i type="logical" name="LWAVE"> F  </i>
   <i type="logical" name="LDOWNSAMPLE"> F  </i>
   <i type="logical" name="LCHARG"> F  </i>
   <i type="logical" name="LPARD"> F  </i>
   <i type="logical" name="LVTOT"> F  </i>
   <i type="logical" name="LVHAR"> F  </i>
   <i type="logical" name="LELF"> F  </i>
   <i type="logical" name="LOPTICS"> F  </i>
   <v name="STM">      0.00000000      0.00000000      0.00000000      0.00000000      0.00000000      0.00000000      0.00000000</v>
  </separator>
  <separator name="performance" >
   <i type="int" name="NPAR">     4</i>
   <i type="int" name="NSIM">     4</i>
   <i type="int" name="NBLK">    -1</i>
   <i type="logical" name="LPLANE"> T  </i>
   <i type="logical" name="LSCALAPACK"> F  </i>
   <i type="logical" name="LSCAAWARE"> F  </i>
   <i type="logical" name="LSCALU"> F  </i>
   <i type="logical" name="LASYNC"> F  </i>
   <i type="logical" name="LORBITALREAL"> F  </i>
  </separator>
  <separator name="miscellaneous" >
   <i type="int" name="IDIOT">     3</i>
   <i type="int" name="ISPECIAL">     0</i>
   <i type="logical" name="LMUSIC"> F  </i>
   <v name="POMASS">     63.54600000     16.00000000</v>
   <v name="DARWINR">      0.00000000      0.00000000</v>
   <v name="DARWINV">      1.00000000      1.00000000</v>
   <i type="logical" name="LCORR"> T  </i>
  </separator>
  <i type="logical" name="GGA_COMPAT"> T  </i>
  <i type="logical" name="LBERRY"> F  </i>
  <i type="int" name="ICORELEVEL">     0</i>
  <i type="logical" name="LDAU"> F  </i>
  <i type="int" name="I_CONSTRAINED_M">     0</i>
  <separator name="electronic exchange-correlation" >
   <i type="string" name="GGA">--</i>
   <i type="int" name="VOSKOWN">     0</i>
   <i type="logical" name="LHFCALC"> F  </i>
   <i type="string" name="PRECFOCK"></i>
   <i type="logical" name="LSYMGRAD"> F  </i>
   <i type="logical" name="LHFONE"> F  </i>
   <i type="logical" name="LRHFCALC"> F  </i>
   <i type="logical" name="LTHOMAS"> F  </i>
   <i type="logical" name="LMODELHF"> F  </i>
   <i name="ENCUT4O">     -1.00000000</i>
   <i type="int" name="EXXOEP">     0</i>
   <i type="int" name="FOURORBIT">     0</i>
   <i name="AEXX">      0.00000000</i>
   <i name="HFALPHA">      0.00000000</i>
   <i name="MCALPHA">      0.00000000</i>
   <i name="ALDAX">      1.00000000</i>
   <i name="AGGAX">      1.00000000</i>
   <i name="ALDAC">      1.00000000</i>
   <i name="AGGAC">      1.00000000</i>
   <i type="int" name="NKREDX">     1</i>
   <i type="int" name="NKREDY">     1</i>
   <i type="int" name="NKREDZ">     1</i>
   <i type="logical" name="SHIFTRED"> F  </i>
   <i type="logical" name="ODDONLY"> F  </i>
   <i type="logical" name="EVENONLY"> F  </i>
   <i type="int" name="LMAXFOCK">     0</i>
   <i type="int" name="NMAXFOCKAE">     0</i>
   <i type="logical" name="LFOCKAEDFT"> F  </i>
   <i name="HFSCREEN">      0.00000000</i>
   <i name="HFSCREENC">      0.00000000</i>
   <i type="int" name="NBANDSGWLOW">     0</i>
  </separator>
  <separator name="vdW DFT" >
   <i type="logical" name="LUSE_VDW"> F  </i>
   <i name="Zab_VDW">     -0.84910000</i>
   <i name="PARAM1">      0.12340000</i>
   <i name="PARAM2">      1.00000000</i>
   <i name="PARAM3">      0.00000000</i>
  </separator>
  <separator name="model GW" >
   <i type="int" name="MODEL_GW">     0</i>
   <i name="MODEL_EPS0">     13.16858037</i>
   <i name="MODEL_ALPHA">      1.00000000</i>
  </separator>
  <separator name="linear response parameters" >
   <i type="logical" name="LEPSILON"> F  </i>
   <i type="logical" name="LRPA"> F  </i>
   <i type="logical" name="LNABLA"> F  </i>
   <i type="logical" name="LVEL"> F  </i>
   <i type="int" name="KINTER">     0</i>
   <i name="CSHIFT">      0.10000000</i>
   <i name="OMEGAMAX">     -1.00000000</i>
   <i name="DEG_THRESHOLD">      0.00200000</i>
   <i name="RTIME">     -0.10000000</i>
   <i name="WPLASMAI">      0.00000000</i>
   <v name="DFIELD">      0.00000000      0.00000000      0.00000000</v>
   <v name="WPLASMA">      0.00000000      0.00000000      0.00000000      0.00000000      0.00000000      0.00000000      0.00000000      0.00000000      0.00000000</v>
  </separator>
  <separator name="orbital magnetization" >
   <i type="logical" name="NUCIND"> F  </i>
   <v name="MAGPOS">      0.00000000      0.00000000      0.00000000</v>
   <i type="logical" name="LNICSALL"> T  </i>
   <i type="logical" name="ORBITALMAG"> F  </i>
   <i type="logical" name="LMAGBLOCH"> F  </i>
   <i type="logical" name="LCHIMAG"> F  </i>
   <i type="logical" name="LGAUGE"> T  </i>
   <i type="int" name="MAGATOM">     0</i>
   <v name="MAGDIPOL">      0.00000000      0.00000000      0.00000000</v>
   <v name="AVECCONST">      0.00000000      0.00000000      0.00000000</v>
  </separator>
  <separator name="response functions" >
   <i type="logical" name="LADDER"> F  </i>
   <i type="logical" name="LRPAFORCE"> F  </i>
   <i type="logical" name="LFXC"> F  </i>
   <i type="logical" name="LHARTREE"> T  </i>
   <i type="int" name="IBSE">     0</i>
   <v type="int" name="KPOINT">    -1     0     0     0</v>
   <i type="logical" name="LTCTE"> F  </i>
   <i type="logical" name="LTETE"> F  </i>
   <i type="logical" name="LTRIPLET"> F  </i>
   <i type="logical" name="LFXCEPS"> F  </i>
   <i type="logical" name="LFXHEG"> F  </i>
   <i type="int" name="NATURALO">     2</i>
   <i type="logical" name="L2ORDER"> F  </i>
   <i type="logical" name="LMP2LT"> F  </i>
   <i type="logical" name="LUSEW"> F  </i>
   <i name="ENCUTGW">     -2.00000000</i>
   <i name="ENCUTGWSOFT">     -2.00000000</i>
   <i name="ENCUTLF">     -1.00000000</i>
   <i type="int" name="LMAXMP2">    -1</i>
   <i name="SCISSOR">      0.00000000</i>
   <i type="int" name="NOMEGA">     0</i>
   <i type="int" name="NOMEGAR">     0</i>
   <i type="int" name="NBANDSGW">    -1</i>
   <i type="int" name="NBANDSO">    -1</i>
   <i type="int" name="NBANDSV">    -1</i>
   <i type="int" name="NELM">   300</i>
   <i type="int" name="NELMHF">     1</i>
   <i type="int" name="DIM">     3</i>
   <i type="int" name="ANTIRES">     0</i>
   <i name="OMEGAMAX">    -30.00000000</i>
   <i name="OMEGAMIN">    -30.00000000</i>
   <i name="OMEGATL">   -200.00000000</i>
   <i type="int" name="OMEGAGRID">   140</i>
   <i name="CSHIFT">     -0.10000000</i>
   <i type="logical" name="SELFENERGY"> F  </i>
   <i type="logical" name="LSPECTRAL"> F  </i>
   <i type="logical" name="LSPECTRALGW"> F  </i>
   <i type="logical" name="LSINGLES"> F  </i>
   <i type="logical" name="LFERMIGW"> F  </i>
   <i type="logical" name="ODDONLYGW"> F  </i>
   <i type="logical" name="EVENONLYGW"> F  </i>
   <i type="int" name="NKREDLFX">     1</i>
   <i type="int" name="NKREDLFY">     1</i>
   <i type="int" name="NKREDLFZ">     1</i>
   <i type="int" name="MAXMEM">  2800</i>
   <i type="int" name="TELESCOPE">     0</i>
   <i type="int" name="TAUPAR">     1</i>
   <i type="int" name="OMEGAPAR">    -1</i>
   <i name="LAMBDA">      1.00000000</i>
  </separator>
  <separator name="External order field" >
   <i name="OFIELD_KAPPA">      0.00000000</i>
   <v name="OFIELD_K">      0.00000000      0.00000000      0.00000000</v>
   <i name="OFIELD_Q6_NEAR">      0.00000000</i>
   <i name="OFIELD_Q6_FAR">      0.00000000</i>
   <i name="OFIELD_A">      0.00000000</i>
  </separator>
 </parameters>
 <atominfo>
  <atoms>     116 </atoms>
  <types>       2 </types>
  <array name="atoms" >
   <dimension dim="1">ion</dimension>
   <field type="string">element</field>
   <field type="int">atomtype</field>
   <set>
    <rc><c>Cu</c><c>   1</c></rc>
    <rc><c>Cu</c><c>   1</c></rc>
    <rc><c>Cu</c><c>   1</c></rc>
    <rc><c>Cu</c><c>   1</c></rc>
    <rc><c>Cu</c><c>   1</c></rc>
    <rc><c>Cu</c><c>   1</c></rc>
    <rc><c>Cu</c><c>   1</c></rc>
    <rc><c>Cu</c><c>   1</c></rc>
    <rc><c>Cu</c><c>   1</c></rc>
    <rc><c>Cu</c><c>   1</c></rc>
    <rc><c>Cu</c><c>   1</c></rc>
    <rc><c>Cu</c><c>   1</c></rc>
    <rc><c>Cu</c><c>   1</c></rc>
    <rc><c>Cu</c><c>   1</c></rc>
    <rc><c>Cu</c><c>   1</c></rc>
    <rc><c>Cu</c><c>   1</c></rc>
    <rc><c>Cu</c><c>   1</c></rc>
    <rc><c>Cu</c><c>   1</c></rc>
    <rc><c>Cu</c><c>   1</c></rc>
    <rc><c>Cu</c><c>   1</c></rc>
    <rc><c>Cu</c><c>   1</c></rc>
    <rc><c>Cu</c><c>   1</c></rc>
    <rc><c>Cu</c><c>   1</c></rc>
    <rc><c>Cu</c><c>   1</c></rc>
    <rc><c>Cu</c><c>   1</c></rc>
    <rc><c>Cu</c><c>   1</c></rc>
    <rc><c>Cu</c><c>   1</c></rc>
    <rc><c>Cu</c><c>   1</c></rc>
    <rc><c>Cu</c><c>   1</c></rc>
    <rc><c>Cu</c><c>   1</c></rc>
    <rc><c>Cu</c><c>   1</c></rc>
    <rc><c>Cu</c><c>   1</c></rc>
    <rc><c>Cu</c><c>   1</c></rc>
    <rc><c>Cu</c><c>   1</c></rc>
    <rc><c>Cu</c><c>   1</c></rc>
    <rc><c>Cu</c><c>   1</c></rc>
    <rc><c>Cu</c><c>   1</c></rc>
    <rc><c>Cu</c><c>   1</c></rc>
    <rc><c>Cu</c><c>   1</c></rc>
    <rc><c>Cu</c><c>   1</c></rc>
    <rc><c>Cu</c><c>   1</c></rc>
    <rc><c>Cu</c><c>   1</c></rc>
    <rc><c>Cu</c><c>   1</c></rc>
    <rc><c>Cu</c><c>   1</c></rc>
    <rc><c>Cu</c><c>   1</c></rc>
    <rc><c>Cu</c><c>   1</c></rc>
    <rc><c>Cu</c><c>   1</c></rc>
    <rc><c>Cu</c><c>   1</c></rc>
    <rc><c>Cu</c><c>   1</c></rc>
    <rc><c>Cu</c><c>   1</c></rc>
    <rc><c>Cu</c><c>   1</c></rc>
    <rc><c>Cu</c><c>   1</c></rc>
    <rc><c>Cu</c><c>   1</c></rc>
    <rc><c>Cu</c><c>   1</c></rc>
    <rc><c>Cu</c><c>   1</c></rc>
    <rc><c>Cu</c><c>   1</c></rc>
    <rc><c>Cu</c><c>   1</c></rc>
    <rc><c>Cu</c><c>   1</c></rc>
    <rc><c>Cu</c><c>   1</c></rc>
    <rc><c>Cu</c><c>   1</c></rc>
    <rc><c>Cu</c><c>   1</c></rc>
    <rc><c>Cu</c><c>   1</c></rc>
    <rc><c>Cu</c><c>   1</c></rc>
    <rc><c>Cu</c><c>   1</c></rc>
    <rc><c>Cu</c><c>   1</c></rc>
    <rc><c>Cu</c><c>   1</c></rc>
    <rc><c>Cu</c><c>   1</c></rc>
    <rc><c>Cu</c><c>   1</c></rc>
    <rc><c>Cu</c><c>   1</c></rc>
    <rc><c>Cu</c><c>   1</c></rc>
    <rc><c>Cu</c><c>   1</c></rc>
    <rc><c>Cu</c><c>   1</c></rc>
    <rc><c>Cu</c><c>   1</c></rc>
    <rc><c>Cu</c><c>   1</c></rc>
    <rc><c>Cu</c><c>   1</c></rc>
    <rc><c>Cu</c><c>   1</c></rc>
    <rc><c>Cu</c><c>   1</c></rc>
    <rc><c>Cu</c><c>   1</c></rc>
    <rc><c>Cu</c><c>   1</c></rc>
    <rc><c>Cu</c><c>   1</c></rc>
    <rc><c>Cu</c><c>   1</c></rc>
    <rc><c>Cu</c><c>   1</c></rc>
    <rc><c>Cu</c><c>   1</c></rc>
    <rc><c>Cu</c><c>   1</c></rc>
    <rc><c>Cu</c><c>   1</c></rc>
    <rc><c>Cu</c><c>   1</c></rc>
    <rc><c>Cu</c><c>   1</c></rc>
    <rc><c>Cu</c><c>   1</c></rc>
    <rc><c>Cu</c><c>   1</c></rc>
    <rc><c>Cu</c><c>   1</c></rc>
    <rc><c>Cu</c><c>   1</c></rc>
    <rc><c>Cu</c><c>   1</c></rc>
    <rc><c>Cu</c><c>   1</c></rc>
    <rc><c>Cu</c><c>   1</c></rc>
    <rc><c>Cu</c><c>   1</c></rc>
    <rc><c>Cu</c><c>   1</c></rc>
    <rc><c>Cu</c><c>   1</c></rc>
    <rc><c>Cu</c><c>   1</c></rc>
    <rc><c>Cu</c><c>   1</c></rc>
    <rc><c>Cu</c><c>   1</c></rc>
    <rc><c>Cu</c><c>   1</c></rc>
    <rc><c>Cu</c><c>   1</c></rc>
    <rc><c>Cu</c><c>   1</c></rc>
    <rc><c>Cu</c><c>   1</c></rc>
    <rc><c>Cu</c><c>   1</c></rc>
    <rc><c>Cu</c><c>   1</c></rc>
    <rc><c>Cu</c><c>   1</c></rc>
    <rc><c>Cu</c><c>   1</c></rc>
    <rc><c>Cu</c><c>   1</c></rc>
    <rc><c>Cu</c><c>   1</c></rc>
    <rc><c>Cu</c><c>   1</c></rc>
    <rc><c>Cu</c><c>   1</c></rc>
    <rc><c>O </c><c>   2</c></rc>
    <rc><c>O </c><c>   2</c></rc>
    <rc><c>O </c><c>   2</c></rc>
    <rc><c>O </c><c>   2</c></rc>
   </set>
  </array>
  <array name="atomtypes" >
   <dimension dim="1">type</dimension>
   <field type="int">atomspertype</field>
   <field type="string">element</field>
   <field>mass</field>
   <field>valence</field>
   <field type="string">pseudopotential</field>
   <set>
    <rc><c> 112</c><c>Cu</c><c>     63.54600000</c><c>     11.00000000</c><c> PAW_PBE Cu 05Jan2001                   </c></rc>
    <rc><c>   4</c><c>O </c><c>     16.00000000</c><c>      6.00000000</c><c> PAW_PBE O 08Apr2002                    </c></rc>
   </set>
  </array>
 </atominfo>
 <structure name="initialpos" >
  <crystal>
   <varray name="basis" >
    <v>      10.28518105       0.00000000       0.00000000 </v>
    <v>       5.14259052       8.90722807       0.00000000 </v>
    <v>       0.00000000       0.00000000      27.79016876 </v>
   </varray>
   <i name="volume">   2545.92553775 </i>
   <varray name="rec_basis" >
    <v>       0.09722726      -0.05613419       0.00000000 </v>
    <v>       0.00000000       0.11226837       0.00000000 </v>
    <v>       0.00000000       0.00000000       0.03598395 </v>
   </varray>
  </crystal>
  <varray name="positions" >
   <v>       0.00000000       0.00000000       0.22663990 </v>
   <v>       0.00000000       0.50000000       0.22663990 </v>
   <v>       0.50000000       0.00000000       0.22663990 </v>
   <v>       0.50000000       0.50000000       0.22663990 </v>
   <v>       0.00000000       0.25000000       0.22663990 </v>
   <v>       0.00000000       0.75000000       0.22663990 </v>
   <v>       0.50000000       0.25000000       0.22663990 </v>
   <v>       0.50000000       0.75000000       0.22663990 </v>
   <v>       0.25000000       0.00000000       0.22663990 </v>
   <v>       0.25000000       0.50000000       0.22663990 </v>
   <v>       0.75000000       0.00000000       0.22663990 </v>
   <v>       0.75000000       0.50000000       0.22663990 </v>
   <v>       0.25000000       0.25000000       0.22663990 </v>
   <v>       0.25000000       0.75000000       0.22663990 </v>
   <v>       0.75000000       0.25000000       0.22663990 </v>
   <v>       0.75000000       0.75000000       0.22663990 </v>
   <v>       0.16666666       0.16666666       0.30218653 </v>
   <v>       0.16666666       0.66666666       0.30218653 </v>
   <v>       0.66666666       0.16666666       0.30218653 </v>
   <v>       0.66666666       0.66666666       0.30218653 </v>
   <v>       0.16666666       0.41666666       0.30218653 </v>
   <v>       0.16666666       0.91666666       0.30218653 </v>
   <v>       0.66666666       0.41666666       0.30218653 </v>
   <v>       0.66666666       0.91666666       0.30218653 </v>
   <v>       0.41666666       0.16666666       0.30218653 </v>
   <v>       0.41666666       0.66666666       0.30218653 </v>
   <v>       0.91666666       0.16666666       0.30218653 </v>
   <v>       0.91666666       0.66666666       0.30218653 </v>
   <v>       0.41666666       0.41666666       0.30218653 </v>
   <v>       0.41666666       0.91666666       0.30218653 </v>
   <v>       0.91666666       0.41666666       0.30218653 </v>
   <v>       0.91666666       0.91666666       0.30218653 </v>
   <v>       0.08333333       0.08333333       0.37716320 </v>
   <v>       0.08333333       0.58333333       0.37716320 </v>
   <v>       0.58333333       0.08333333       0.37716320 </v>
   <v>       0.58333333       0.58333333       0.37716320 </v>
   <v>       0.08351614       0.33324190       0.37729758 </v>
   <v>       0.08351614       0.83324190       0.37729758 </v>
   <v>       0.58351614       0.33324190       0.37729758 </v>
   <v>       0.58351614       0.83324190       0.37729758 </v>
   <v>       0.33324190       0.08351614       0.37729758 </v>
   <v>       0.33324190       0.58351614       0.37729758 </v>
   <v>       0.83324190       0.08351614       0.37729758 </v>
   <v>       0.83324190       0.58351614       0.37729758 </v>
   <v>       0.33324190       0.33324190       0.37729758 </v>
   <v>       0.33324190       0.83324190       0.37729758 </v>
   <v>       0.83324190       0.33324190       0.37729758 </v>
   <v>       0.83324190       0.83324190       0.37729758 </v>
   <v>       0.00012997       0.00012997       0.45242342 </v>
   <v>       0.00012997       0.50012997       0.45242342 </v>
   <v>       0.50012997       0.00012997       0.45242342 </v>
   <v>       0.50012997       0.50012997       0.45242342 </v>
   <v>       0.00012997       0.24974005       0.45242342 </v>
   <v>       0.00012997       0.74974005       0.45242342 </v>
   <v>       0.50012997       0.24974005       0.45242342 </v>
   <v>       0.50012997       0.74974005       0.45242342 </v>
   <v>       0.24974005       0.00012997       0.45242342 </v>
   <v>       0.24974005       0.50012997       0.45242342 </v>
   <v>       0.74974005       0.00012997       0.45242342 </v>
   <v>       0.74974005       0.50012997       0.45242342 </v>
   <v>       0.25000000       0.25000000       0.45288750 </v>
   <v>       0.25000000       0.75000000       0.45288750 </v>
   <v>       0.75000000       0.25000000       0.45288750 </v>
   <v>       0.75000000       0.75000000       0.45288750 </v>
   <v>       0.16660598       0.16660598       0.52813907 </v>
   <v>       0.16660598       0.66660598       0.52813907 </v>
   <v>       0.66660598       0.16660598       0.52813907 </v>
   <v>       0.66660598       0.66660598       0.52813907 </v>
   <v>       0.16660598       0.41678801       0.52813907 </v>
   <v>       0.16660598       0.91678801       0.52813907 </v>
   <v>       0.66660598       0.41678801       0.52813907 </v>
   <v>       0.66660598       0.91678801       0.52813907 </v>
   <v>       0.41678801       0.16660598       0.52813907 </v>
   <v>       0.41678801       0.66660598       0.52813907 </v>
   <v>       0.91678801       0.16660598       0.52813907 </v>
   <v>       0.91678801       0.66660598       0.52813907 </v>
   <v>       0.41666666       0.41666666       0.52741939 </v>
   <v>       0.41666666       0.91666666       0.52741939 </v>
   <v>       0.91666666       0.41666666       0.52741939 </v>
   <v>       0.91666666       0.91666666       0.52741939 </v>
   <v>       0.08333333       0.08333333       0.60253339 </v>
   <v>       0.08333333       0.58333333       0.60253339 </v>
   <v>       0.58333333       0.08333333       0.60253339 </v>
   <v>       0.58333333       0.58333333       0.60253339 </v>
   <v>       0.08210321       0.33275757       0.60269575 </v>
   <v>       0.08130935       0.83434529       0.60320464 </v>
   <v>       0.58130935       0.33434529       0.60320464 </v>
   <v>       0.58130935       0.83434529       0.60320464 </v>
   <v>       0.33434529       0.08130935       0.60320464 </v>
   <v>       0.33434529       0.58130935       0.60320464 </v>
   <v>       0.83434529       0.08130935       0.60320464 </v>
   <v>       0.83434529       0.58130935       0.60320464 </v>
   <v>       0.33434529       0.33434529       0.60320464 </v>
   <v>       0.33434529       0.83434529       0.60320464 </v>
   <v>       0.83434529       0.33434529       0.60320464 </v>
   <v>       0.83434529       0.83434529       0.60320464 </v>
   <v>       0.49714648       0.49714648       0.68057248 </v>
   <v>       0.49714648       0.99714648       0.68057248 </v>
   <v>       0.99714648       0.49714648       0.68057248 </v>
   <v>       0.99714648       0.99714648       0.68057248 </v>
   <v>       0.49714648       0.25570704       0.68057248 </v>
   <v>       0.49714648       0.75570704       0.68057248 </v>
   <v>       0.99714648       0.25570704       0.68057248 </v>
   <v>       0.99714648       0.75570704       0.68057248 </v>
   <v>       0.25570704       0.49714648       0.68057248 </v>
   <v>       0.25570704       0.99714648       0.68057248 </v>
   <v>       0.75570704       0.49714648       0.68057248 </v>
   <v>       0.75570704       0.99714648       0.68057248 </v>
   <v>       0.25000000       0.25000000       0.67480871 </v>
   <v>       0.25000000       0.75000000       0.67480871 </v>
   <v>       0.75000000       0.25000000       0.67480871 </v>
   <v>       0.75000000       0.75000000       0.67480871 </v>
   <v>       0.08333333       0.08333333       0.72043888 </v>
   <v>       0.08333333       0.58333333       0.72043888 </v>
   <v>       0.58333333       0.08333333       0.72043888 </v>
   <v>       0.58333333       0.58333333       0.72043888 </v>
  </varray>
 </structure>
 <calculation>
  <scstep>
   <time name="dav">  161.12  161.25</time>
   <time name="total">  161.88  162.05</time>
   <energy>
    <i name="alphaZ">   6463.29446255 </i>
    <i name="ewald"> 664631.92913960 </i>
    <i name="hartreedc">-815386.82263991 </i>
    <i name="XCdc">   5009.43436461 </i>
    <i name="pawpsdc"> 122173.85035501 </i>
    <i name="pawaedc">-138312.01710912 </i>
    <i name="eentropy">     -0.02948466 </i>
    <i name="bandstr">   8852.65629158 </i>
    <i name="atom"> 157518.83071590 </i>
    <i name="e_fr_energy">  10951.12609556 </i>
    <i name="e_wo_entrp">  10951.15558022 </i>
    <i name="e_0_energy">  10951.14083789 </i>
   </energy>
  </scstep>
  <scstep>
   <time name="dav">  156.67  156.76</time>
   <time name="total">  156.70  156.78</time>
   <energy>
    <i name="e_fr_energy">   1074.04623729 </i>
    <i name="e_wo_entrp">   1074.08715442 </i>
    <i name="e_0_energy">   1074.06669585 </i>
   </energy>
  </scstep>
  <scstep>
   <time name="dav">  160.54  160.73</time>
   <time name="total">  160.57  160.75</time>
   <energy>
    <i name="e_fr_energy">   -373.56673921 </i>
    <i name="e_wo_entrp">   -373.50087325 </i>
    <i name="e_0_energy">   -373.53380623 </i>
   </energy>
  </scstep>
  <scstep>
   <time name="dav">  166.28  166.36</time>
   <time name="total">  166.30  166.38</time>
   <energy>
    <i name="e_fr_energy">   -524.80980959 </i>
    <i name="e_wo_entrp">   -524.74647071 </i>
    <i name="e_0_energy">   -524.77814015 </i>
   </energy>
  </scstep>
  <scstep>
   <time name="dav">  202.77  206.14</time>
   <time name="total">  207.39  210.77</time>
   <energy>
    <i name="e_fr_energy">   -530.86759068 </i>
    <i name="e_wo_entrp">   -530.80427807 </i>
    <i name="e_0_energy">   -530.83593438 </i>
   </energy>
  </scstep>
  <scstep>
   <time name="dav">  177.29  177.37</time>
   <time name="total">  182.38  182.48</time>
   <energy>
    <i name="e_fr_energy">   -478.07188186 </i>
    <i name="e_wo_entrp">   -478.01549292 </i>
    <i name="e_0_energy">   -478.04368739 </i>
   </energy>
  </scstep>
  <scstep>
   <time name="dav">  179.75  179.80</time>
   <time name="total">  184.79  184.84</time>
   <energy>
    <i name="e_fr_energy">   -511.16222011 </i>
    <i name="e_wo_entrp">   -511.04076698 </i>
    <i name="e_0_energy">   -511.10149354 </i>
   </energy>
  </scstep>
  <scstep>
   <time name="dav">  196.16  196.26</time>
   <time name="total">  201.21  201.35</time>
   <energy>
    <i name="e_fr_energy">   -444.81435747 </i>
    <i name="e_wo_entrp">   -444.73096837 </i>
    <i name="e_0_energy">   -444.77266292 </i>
   </energy>
  </scstep>
  <scstep>
   <time name="dav">  192.53  192.76</time>
   <time name="total">  197.56  197.79</time>
   <energy>
    <i name="e_fr_energy">   -428.50878767 </i>
    <i name="e_wo_entrp">   -428.46962619 </i>
    <i name="e_0_energy">   -428.48920693 </i>
   </energy>
  </scstep>
  <scstep>
   <time name="dav">  172.30  172.34</time>
   <time name="total">  177.29  177.36</time>
   <energy>
    <i name="e_fr_energy">   -429.30198001 </i>
    <i name="e_wo_entrp">   -429.24855410 </i>
    <i name="e_0_energy">   -429.27526706 </i>
   </energy>
  </scstep>
  <scstep>
   <time name="dav">  165.10  165.12</time>
   <time name="total">  170.13  170.19</time>
   <energy>
    <i name="e_fr_energy">   -427.93063674 </i>
    <i name="e_wo_entrp">   -427.86405588 </i>
    <i name="e_0_energy">   -427.89734631 </i>
   </energy>
  </scstep>
  <scstep>
   <time name="dav">  185.94  186.01</time>
   <time name="total">  191.11  191.29</time>
   <energy>
    <i name="e_fr_energy">   -427.70154455 </i>
    <i name="e_wo_entrp">   -427.64668391 </i>
    <i name="e_0_energy">   -427.67411423 </i>
   </energy>
  </scstep>
  <scstep>
   <time name="dav">  207.70  207.73</time>
   <time name="total">  214.42  215.21</time>
   <energy>
    <i name="e_fr_energy">   -427.64664960 </i>
    <i name="e_wo_entrp">   -427.59204110 </i>
    <i name="e_0_energy">   -427.61934535 </i>
   </energy>
  </scstep>
  <scstep>
   <time name="dav">  175.85  175.88</time>
   <time name="total">  182.56  182.59</time>
   <energy>
    <i name="e_fr_energy">   -427.54174688 </i>
    <i name="e_wo_entrp">   -427.49259470 </i>
    <i name="e_0_energy">   -427.51717079 </i>
   </energy>
  </scstep>
  <scstep>
   <time name="dav">  169.20  169.22</time>
   <time name="total">  174.53  174.57</time>
   <energy>
    <i name="e_fr_energy">   -427.61106805 </i>
    <i name="e_wo_entrp">   -427.56261758 </i>
    <i name="e_0_energy">   -427.58684282 </i>
   </energy>
  </scstep>
  <scstep>
   <time name="dav">  166.60  166.63</time>
   <time name="total">  171.89  171.93</time>
   <energy>
    <i name="e_fr_energy">   -427.51244305 </i>
    <i name="e_wo_entrp">   -427.46286719 </i>
    <i name="e_0_energy">   -427.48765512 </i>
   </energy>
  </scstep>
  <scstep>
   <time name="dav">  165.73  165.78</time>
   <time name="total">  170.75  170.79</time>
   <energy>
    <i name="e_fr_energy">   -427.47876249 </i>
    <i name="e_wo_entrp">   -427.42761010 </i>
    <i name="e_0_energy">   -427.45318630 </i>
   </energy>
  </scstep>
  <scstep>
   <time name="dav">  184.09  184.16</time>
   <time name="total">  189.09  189.16</time>
   <energy>
    <i name="e_fr_energy">   -427.46511990 </i>
    <i name="e_wo_entrp">   -427.41264859 </i>
    <i name="e_0_energy">   -427.43888424 </i>
   </energy>
  </scstep>
  <scstep>
   <time name="dav">  165.03  165.12</time>
   <time name="total">  170.02  170.11</time>
   <energy>
    <i name="e_fr_energy">   -427.46507522 </i>
    <i name="e_wo_entrp">   -427.41205679 </i>
    <i name="e_0_energy">   -427.43856601 </i>
   </energy>
  </scstep>
  <scstep>
   <time name="dav">  152.59  152.65</time>
   <time name="total">  157.62  157.68</time>
   <energy>
    <i name="e_fr_energy">   -427.46553501 </i>
    <i name="e_wo_entrp">   -427.41232847 </i>
    <i name="e_0_energy">   -427.43893174 </i>
   </energy>
  </scstep>
  <scstep>
   <time name="dav">  164.12  164.17</time>
   <time name="total">  169.10  169.15</time>
   <energy>
    <i name="e_fr_energy">   -427.46596562 </i>
    <i name="e_wo_entrp">   -427.41247454 </i>
    <i name="e_0_energy">   -427.43922008 </i>
   </energy>
  </scstep>
  <scstep>
   <time name="dav">  164.30  164.33</time>
   <time name="total">  169.36  169.63</time>
   <energy>
    <i name="e_fr_energy">   -427.46599800 </i>
    <i name="e_wo_entrp">   -427.41275714 </i>
    <i name="e_0_energy">   -427.43937757 </i>
   </energy>
  </scstep>
  <scstep>
   <time name="dav">  157.86  158.40</time>
   <time name="total">  162.86  163.40</time>
   <energy>
    <i name="e_fr_energy">   -427.46602361 </i>
    <i name="e_wo_entrp">   -427.41281089 </i>
    <i name="e_0_energy">   -427.43941725 </i>
   </energy>
  </scstep>
  <scstep>
   <time name="dav">  158.43  158.56</time>
   <time name="total">  163.48  163.64</time>
   <energy>
    <i name="e_fr_energy">   -427.46615658 </i>
    <i name="e_wo_entrp">   -427.41293180 </i>
    <i name="e_0_energy">   -427.43954419 </i>
   </energy>
  </scstep>
  <scstep>
   <time name="dav">  167.39  167.48</time>
   <time name="total">  172.39  172.48</time>
   <energy>
    <i name="e_fr_energy">   -427.46632016 </i>
    <i name="e_wo_entrp">   -427.41313496 </i>
    <i name="e_0_energy">   -427.43972756 </i>
   </energy>
  </scstep>
  <scstep>
   <time name="dav">  168.28  168.57</time>
   <time name="total">  173.29  173.57</time>
   <energy>
    <i name="e_fr_energy">   -427.46656133 </i>
    <i name="e_wo_entrp">   -427.41337388 </i>
    <i name="e_0_energy">   -427.43996760 </i>
   </energy>
  </scstep>
  <scstep>
   <time name="dav">  154.38  154.45</time>
   <time name="total">  159.38  159.45</time>
   <energy>
    <i name="e_fr_energy">   -427.46679668 </i>
    <i name="e_wo_entrp">   -427.41361408 </i>
    <i name="e_0_energy">   -427.44020538 </i>
   </energy>
  </scstep>
  <scstep>
   <time name="dav">  153.67  153.73</time>
   <time name="total">  158.65  158.71</time>
   <energy>
    <i name="e_fr_energy">   -427.46698810 </i>
    <i name="e_wo_entrp">   -427.41381923 </i>
    <i name="e_0_energy">   -427.44040366 </i>
   </energy>
  </scstep>
  <scstep>
   <time name="dav">  154.24  154.27</time>
   <time name="total">  159.30  159.33</time>
   <energy>
    <i name="e_fr_energy">   -427.46712483 </i>
    <i name="e_wo_entrp">   -427.41396662 </i>
    <i name="e_0_energy">   -427.44054573 </i>
   </energy>
  </scstep>
  <scstep>
   <time name="dav">  160.82  160.87</time>
   <time name="total">  166.59  166.64</time>
   <energy>
    <i name="e_fr_energy">   -427.46724720 </i>
    <i name="e_wo_entrp">   -427.41409099 </i>
    <i name="e_0_energy">   -427.44066909 </i>
   </energy>
  </scstep>
  <scstep>
   <time name="dav">  145.80  145.82</time>
   <time name="total">  152.62  152.64</time>
   <energy>
    <i name="e_fr_energy">   -427.46733402 </i>
    <i name="e_wo_entrp">   -427.41416799 </i>
    <i name="e_0_energy">   -427.44075101 </i>
   </energy>
  </scstep>
  <scstep>
   <time name="dav">  152.04  152.07</time>
   <time name="total">  157.11  157.14</time>
   <energy>
    <i name="e_fr_energy">   -427.46739573 </i>
    <i name="e_wo_entrp">   -427.41421510 </i>
    <i name="e_0_energy">   -427.44080541 </i>
   </energy>
  </scstep>
  <scstep>
   <time name="dav">  122.93  122.96</time>
   <time name="total">  127.95  127.98</time>
   <energy>
    <i name="e_fr_energy">   -427.46742151 </i>
    <i name="e_wo_entrp">   -427.41423833 </i>
    <i name="e_0_energy">   -427.44082992 </i>
   </energy>
  </scstep>
  <scstep>
   <time name="dav">  120.21  120.26</time>
   <time name="total">  125.22  125.27</time>
   <energy>
    <i name="e_fr_energy">   -427.46744468 </i>
    <i name="e_wo_entrp">   -427.41426657 </i>
    <i name="e_0_energy">   -427.44085563 </i>
   </energy>
  </scstep>
  <scstep>
   <time name="dav">  111.77  111.80</time>
   <time name="total">  116.80  116.83</time>
   <energy>
    <i name="e_fr_energy">   -427.46746302 </i>
    <i name="e_wo_entrp">   -427.41429042 </i>
    <i name="e_0_energy">   -427.44087672 </i>
   </energy>
  </scstep>
  <scstep>
   <time name="dav">  109.49  109.53</time>
   <time name="total">  116.51  116.54</time>
   <energy>
    <i name="e_fr_energy">   -427.46747133 </i>
    <i name="e_wo_entrp">   -427.41430122 </i>
    <i name="e_0_energy">   -427.44088628 </i>
   </energy>
  </scstep>
  <scstep>
   <time name="dav">  109.70  109.73</time>
   <time name="total">  114.70  114.73</time>
   <energy>
    <i name="e_fr_energy">   -427.46747990 </i>
    <i name="e_wo_entrp">   -427.41430922 </i>
    <i name="e_0_energy">   -427.44089456 </i>
   </energy>
  </scstep>
  <scstep>
   <time name="dav">  108.60  108.65</time>
   <time name="total">  113.62  113.67</time>
   <energy>
    <i name="e_fr_energy">   -427.46748247 </i>
    <i name="e_wo_entrp">   -427.41431042 </i>
    <i name="e_0_energy">   -427.44089645 </i>
   </energy>
  </scstep>
  <scstep>
   <time name="dav">  112.70  112.73</time>
   <time name="total">  117.72  117.76</time>
   <energy>
    <i name="e_fr_energy">   -427.46748450 </i>
    <i name="e_wo_entrp">   -427.41431141 </i>
    <i name="e_0_energy">   -427.44089796 </i>
   </energy>
  </scstep>
  <scstep>
   <time name="dav">  111.48  111.53</time>
   <time name="total">  111.97  112.02</time>
   <energy>
    <i name="alphaZ">   6463.29446255 </i>
    <i name="ewald"> 664631.92913960 </i>
    <i name="hartreedc">-813422.85073821 </i>
    <i name="XCdc">   4896.83127234 </i>
    <i name="pawpsdc"> 123759.98881003 </i>
    <i name="pawaedc">-139977.05238708 </i>
    <i name="eentropy">     -0.05317323 </i>
    <i name="bandstr">  -4298.38558732 </i>
    <i name="atom"> 157518.83071590 </i>
    <i name="e_fr_energy">   -427.46748542 </i>
    <i name="e_wo_entrp">   -427.41431220 </i>
    <i name="e_0_energy">   -427.44089881 </i>
   </energy>
  </scstep>
  <structure>
   <crystal>
    <varray name="basis" >
     <v>      10.28518105       0.00000000       0.00000000 </v>
     <v>       5.14259052       8.90722807       0.00000000 </v>
     <v>       0.00000000       0.00000000      27.79016876 </v>
    </varray>
    <i name="volume">   2545.92553775 </i>
    <varray name="rec_basis" >
     <v>       0.09722726      -0.05613419       0.00000000 </v>
     <v>       0.00000000       0.11226837       0.00000000 </v>
     <v>       0.00000000       0.00000000       0.03598395 </v>
    </varray>
   </crystal>
   <varray name="positions" >
    <v>       0.00000000       0.00000000       0.22663990 </v>
    <v>       0.00000000       0.50000000       0.22663990 </v>
    <v>       0.50000000       0.00000000       0.22663990 </v>
    <v>       0.50000000       0.50000000       0.22663990 </v>
    <v>       0.00000000       0.25000000       0.22663990 </v>
    <v>       0.00000000       0.75000000       0.22663990 </v>
    <v>       0.50000000       0.25000000       0.22663990 </v>
    <v>       0.50000000       0.75000000       0.22663990 </v>
    <v>       0.25000000       0.00000000       0.22663990 </v>
    <v>       0.25000000       0.50000000       0.22663990 </v>
    <v>       0.75000000       0.00000000       0.22663990 </v>
    <v>       0.75000000       0.50000000       0.22663990 </v>
    <v>       0.25000000       0.25000000       0.22663990 </v>
    <v>       0.25000000       0.75000000       0.22663990 </v>
    <v>       0.75000000       0.25000000       0.22663990 </v>
    <v>       0.75000000       0.75000000       0.22663990 </v>
    <v>       0.16666666       0.16666666       0.30218653 </v>
    <v>       0.16666666       0.66666666       0.30218653 </v>
    <v>       0.66666666       0.16666666       0.30218653 </v>
    <v>       0.66666666       0.66666666       0.30218653 </v>
    <v>       0.16666666       0.41666666       0.30218653 </v>
    <v>       0.16666666       0.91666666       0.30218653 </v>
    <v>       0.66666666       0.41666666       0.30218653 </v>
    <v>       0.66666666       0.91666666       0.30218653 </v>
    <v>       0.41666666       0.16666666       0.30218653 </v>
    <v>       0.41666666       0.66666666       0.30218653 </v>
    <v>       0.91666666       0.16666666       0.30218653 </v>
    <v>       0.91666666       0.66666666       0.30218653 </v>
    <v>       0.41666666       0.41666666       0.30218653 </v>
    <v>       0.41666666       0.91666666       0.30218653 </v>
    <v>       0.91666666       0.41666666       0.30218653 </v>
    <v>       0.91666666       0.91666666       0.30218653 </v>
    <v>       0.08333333       0.08333333       0.37716320 </v>
    <v>       0.08333333       0.58333333       0.37716320 </v>
    <v>       0.58333333       0.08333333       0.37716320 </v>
    <v>       0.58333333       0.58333333       0.37716320 </v>
    <v>       0.08351614       0.33324190       0.37729758 </v>
    <v>       0.08351614       0.83324190       0.37729758 </v>
    <v>       0.58351614       0.33324190       0.37729758 </v>
    <v>       0.58351614       0.83324190       0.37729758 </v>
    <v>       0.33324190       0.08351614       0.37729758 </v>
    <v>       0.33324190       0.58351614       0.37729758 </v>
    <v>       0.83324190       0.08351614       0.37729758 </v>
    <v>       0.83324190       0.58351614       0.37729758 </v>
    <v>       0.33324190       0.33324190       0.37729758 </v>
    <v>       0.33324190       0.83324190       0.37729758 </v>
    <v>       0.83324190       0.33324190       0.37729758 </v>
    <v>       0.83324190       0.83324190       0.37729758 </v>
    <v>       0.00012997       0.00012997       0.45242342 </v>
    <v>       0.00012997       0.50012997       0.45242342 </v>
    <v>       0.50012997       0.00012997       0.45242342 </v>
    <v>       0.50012997       0.50012997       0.45242342 </v>
    <v>       0.00012997       0.24974005       0.45242342 </v>
    <v>       0.00012997       0.74974005       0.45242342 </v>
    <v>       0.50012997       0.24974005       0.45242342 </v>
    <v>       0.50012997       0.74974005       0.45242342 </v>
    <v>       0.24974005       0.00012997       0.45242342 </v>
    <v>       0.24974005       0.50012997       0.45242342 </v>
    <v>       0.74974005       0.00012997       0.45242342 </v>
    <v>       0.74974005       0.50012997       0.45242342 </v>
    <v>       0.25000000       0.25000000       0.45288750 </v>
    <v>       0.25000000       0.75000000       0.45288750 </v>
    <v>       0.75000000       0.25000000       0.45288750 </v>
    <v>       0.75000000       0.75000000       0.45288750 </v>
    <v>       0.16660598       0.16660598       0.52813907 </v>
    <v>       0.16660598       0.66660598       0.52813907 </v>
    <v>       0.66660598       0.16660598       0.52813907 </v>
    <v>       0.66660598       0.66660598       0.52813907 </v>
    <v>       0.16660598       0.41678801       0.52813907 </v>
    <v>       0.16660598       0.91678801       0.52813907 </v>
    <v>       0.66660598       0.41678801       0.52813907 </v>
    <v>       0.66660598       0.91678801       0.52813907 </v>
    <v>       0.41678801       0.16660598       0.52813907 </v>
    <v>       0.41678801       0.66660598       0.52813907 </v>
    <v>       0.91678801       0.16660598       0.52813907 </v>
    <v>       0.91678801       0.66660598       0.52813907 </v>
    <v>       0.41666666       0.41666666       0.52741939 </v>
    <v>       0.41666666       0.91666666       0.52741939 </v>
    <v>       0.91666666       0.41666666       0.52741939 </v>
    <v>       0.91666666       0.91666666       0.52741939 </v>
    <v>       0.08333333       0.08333333       0.60253339 </v>
    <v>       0.08333333       0.58333333       0.60253339 </v>
    <v>       0.58333333       0.08333333       0.60253339 </v>
    <v>       0.58333333       0.58333333       0.60253339 </v>
    <v>       0.08210321       0.33275757       0.60269575 </v>
    <v>       0.08130935       0.83434529       0.60320464 </v>
    <v>       0.58130935       0.33434529       0.60320464 </v>
    <v>       0.58130935       0.83434529       0.60320464 </v>
    <v>       0.33434529       0.08130935       0.60320464 </v>
    <v>       0.33434529       0.58130935       0.60320464 </v>
    <v>       0.83434529       0.08130935       0.60320464 </v>
    <v>       0.83434529       0.58130935       0.60320464 </v>
    <v>       0.33434529       0.33434529       0.60320464 </v>
    <v>       0.33434529       0.83434529       0.60320464 </v>
    <v>       0.83434529       0.33434529       0.60320464 </v>
    <v>       0.83434529       0.83434529       0.60320464 </v>
    <v>       0.49714648       0.49714648       0.68057248 </v>
    <v>       0.49714648       0.99714648       0.68057248 </v>
    <v>       0.99714648       0.49714648       0.68057248 </v>
    <v>       0.99714648       0.99714648       0.68057248 </v>
    <v>       0.49714648       0.25570704       0.68057248 </v>
    <v>       0.49714648       0.75570704       0.68057248 </v>
    <v>       0.99714648       0.25570704       0.68057248 </v>
    <v>       0.99714648       0.75570704       0.68057248 </v>
    <v>       0.25570704       0.49714648       0.68057248 </v>
    <v>       0.25570704       0.99714648       0.68057248 </v>
    <v>       0.75570704       0.49714648       0.68057248 </v>
    <v>       0.75570704       0.99714648       0.68057248 </v>
    <v>       0.25000000       0.25000000       0.67480871 </v>
    <v>       0.25000000       0.75000000       0.67480871 </v>
    <v>       0.75000000       0.25000000       0.67480871 </v>
    <v>       0.75000000       0.75000000       0.67480871 </v>
    <v>       0.08333333       0.08333333       0.72043888 </v>
    <v>       0.08333333       0.58333333       0.72043888 </v>
    <v>       0.58333333       0.08333333       0.72043888 </v>
    <v>       0.58333333       0.58333333       0.72043888 </v>
   </varray>
  </structure>
  <varray name="forces" >
   <v>       0.00783314       0.00445367       0.07171213 </v>
   <v>       0.00790728       0.00453619       0.07168769 </v>
   <v>       0.00799195       0.00449737       0.07171944 </v>
   <v>       0.00787634       0.00471843       0.07164216 </v>
   <v>       0.00008693      -0.00913216       0.07167114 </v>
   <v>      -0.00000368      -0.00911751       0.07170691 </v>
   <v>       0.00013261      -0.00911145       0.07177426 </v>
   <v>       0.00002685      -0.00917238       0.07165310 </v>
   <v>      -0.00793508       0.00472583       0.07184033 </v>
   <v>      -0.00789525       0.00449732       0.07167066 </v>
   <v>      -0.00792712       0.00449310       0.07156583 </v>
   <v>      -0.00795595       0.00453207       0.07174087 </v>
   <v>      -0.00004828       0.00003802       0.08638455 </v>
   <v>      -0.00006649      -0.00003269       0.08638262 </v>
   <v>      -0.00003356       0.00003961       0.08643082 </v>
   <v>       0.00000323      -0.00005379       0.08634377 </v>
   <v>       0.00692561       0.00383564      -0.08002735 </v>
   <v>       0.00700522       0.00421765      -0.07991199 </v>
   <v>       0.00699223       0.00418486      -0.08007885 </v>
   <v>       0.00706017       0.00417425      -0.07999796 </v>
   <v>       0.00002892      -0.00818882      -0.08000747 </v>
   <v>       0.00003776      -0.00818223      -0.08000020 </v>
   <v>       0.00018197      -0.00798199      -0.08001926 </v>
   <v>       0.00005828      -0.00801847      -0.07989113 </v>
   <v>      -0.00703393       0.00405250      -0.07993771 </v>
   <v>      -0.00697984       0.00386343      -0.08000053 </v>
   <v>      -0.00699712       0.00406953      -0.07987265 </v>
   <v>      -0.00696720       0.00386234      -0.07997445 </v>
   <v>      -0.00015619       0.00003573      -0.05917206 </v>
   <v>      -0.00009529      -0.00009303      -0.05919283 </v>
   <v>       0.00010087      -0.00014517      -0.05920700 </v>
   <v>      -0.00014349       0.00015353      -0.05928471 </v>
   <v>      -0.00003259      -0.00002556      -0.00002863 </v>
   <v>      -0.00012199       0.00004116       0.00002465 </v>
   <v>      -0.00001442      -0.00005855      -0.00004053 </v>
   <v>      -0.00015529      -0.00008050      -0.00004431 </v>
   <v>       0.00006328       0.00010503       0.00001376 </v>
   <v>       0.00010520      -0.00008294       0.00003854 </v>
   <v>      -0.00000071      -0.00006068      -0.00002360 </v>
   <v>       0.00003312      -0.00006953      -0.00002638 </v>
   <v>      -0.00002439      -0.00005217      -0.00001623 </v>
   <v>       0.00017460       0.00001702      -0.00025517 </v>
   <v>      -0.00003153      -0.00008688      -0.00013993 </v>
   <v>       0.00002759       0.00015680      -0.00004193 </v>
   <v>      -0.00001223       0.00010674       0.00003805 </v>
   <v>      -0.00000887      -0.00004923      -0.00023224 </v>
   <v>       0.00001177       0.00003769      -0.00005147 </v>
   <v>       0.00002330       0.00009872      -0.00013620 </v>
   <v>       0.00009914       0.00010070       0.00033554 </v>
   <v>       0.00002930       0.00016055      -0.00048358 </v>
   <v>      -0.00013357      -0.00000635       0.00030076 </v>
   <v>      -0.00005434       0.00005398       0.00008956 </v>
   <v>      -0.00025981      -0.00029268      -0.00092540 </v>
   <v>      -0.00017053       0.00004280       0.00009122 </v>
   <v>      -0.00005145       0.00010235       0.00020087 </v>
   <v>      -0.00004169      -0.00003501      -0.00007364 </v>
   <v>      -0.00009924      -0.00003725      -0.00000459 </v>
   <v>       0.00009298       0.00022839      -0.00013703 </v>
   <v>      -0.00003578       0.00015513       0.00002225 </v>
   <v>       0.00007010       0.00006758       0.00009549 </v>
   <v>       0.00021174      -0.00028941      -0.00071419 </v>
   <v>       0.00003299      -0.00006993      -0.00002188 </v>
   <v>       0.00016723       0.00010844       0.00012187 </v>
   <v>       0.00015951       0.00003770       0.00000884 </v>
   <v>       0.00029364      -0.02013365      -0.02947133 </v>
   <v>      -0.00014609      -0.00033830       0.00001790 </v>
   <v>       0.00008420      -0.00015136       0.00008362 </v>
   <v>      -0.00003406      -0.00016319      -0.00012051 </v>
   <v>       0.00721254       0.00566568      -0.01071186 </v>
   <v>      -0.00011000      -0.00076550      -0.00058251 </v>
   <v>      -0.00020684       0.00015120      -0.00021939 </v>
   <v>      -0.00010287       0.00003020       0.00005235 </v>
   <v>       0.00082135      -0.00003505      -0.00042400 </v>
   <v>       0.00000713       0.00008470       0.00010148 </v>
   <v>      -0.00080998      -0.00029290      -0.00034710 </v>
   <v>      -0.00007726      -0.00010246       0.00016999 </v>
   <v>       0.00013042      -0.00000348      -0.00012976 </v>
   <v>       0.00024187      -0.00082093      -0.00064236 </v>
   <v>      -0.00706023       0.00551218      -0.01004324 </v>
   <v>       0.00020019       0.00011643      -0.00012839 </v>
   <v>      -0.01122349      -0.01840063       0.00105587 </v>
   <v>      -0.01068030      -0.01710485       0.00117593 </v>
   <v>       0.00023176      -0.00010730      -0.00014056 </v>
   <v>       0.00013631      -0.00021061       0.00001614 </v>
   <v>       0.00635696       0.08670479       0.08981216 </v>
   <v>      -0.00024753      -0.00028392      -0.00015372 </v>
   <v>       0.00028824       0.00016168      -0.00022184 </v>
   <v>       0.00043682      -0.00028617      -0.00032217 </v>
   <v>       0.00960922      -0.01556738       0.00131951 </v>
   <v>      -0.00049864      -0.00003469      -0.00032666 </v>
   <v>      -0.00040520      -0.00004087      -0.00041154 </v>
   <v>       0.01208063      -0.02073588       0.00184404 </v>
   <v>       0.00051630       0.00102933       0.00071248 </v>
   <v>      -0.00013531      -0.00079340      -0.00028955 </v>
   <v>       0.00093846       0.00228801       0.00228858 </v>
   <v>      -0.00010120      -0.00088021      -0.00020821 </v>
   <v>       0.00003464       0.00029382      -0.00047050 </v>
   <v>       0.00012625      -0.00005288      -0.00075924 </v>
   <v>      -0.00296530      -0.01420860      -0.02237365 </v>
   <v>       0.00000325      -0.00023655      -0.00067580 </v>
   <v>      -0.00048127       0.00017686      -0.00088724 </v>
   <v>      -0.00038966      -0.00000704      -0.00048720 </v>
   <v>       0.00335802       0.00584089      -0.00890794 </v>
   <v>      -0.00035928      -0.00022825      -0.00176472 </v>
   <v>      -0.00062335      -0.00024600      -0.00047741 </v>
   <v>       0.00021142      -0.00027079      -0.00048615 </v>
   <v>       0.00163891      -0.00037474      -0.00104398 </v>
   <v>       0.00005093       0.00020887      -0.00059247 </v>
   <v>      -0.00942426       0.00797465      -0.01320610 </v>
   <v>       0.00007602       0.00012448      -0.00007782 </v>
   <v>       0.00036798       0.00021857      -0.00023534 </v>
   <v>       0.00021046      -0.00122857      -0.00053518 </v>
   <v>       0.00103618       0.00042609       0.00058424 </v>
   <v>       0.00017703      -0.00273952      -0.00140185 </v>
   <v>       0.00007668      -0.00051807       0.00135754 </v>
   <v>      -0.00093598       0.00027983       0.00135089 </v>
  </varray>
  <varray name="stress" >
   <v>      -2.07434497       0.00103900      -0.00997542 </v>
   <v>       0.00103897      -2.07767684       0.00622531 </v>
   <v>      -0.00997542       0.00622531      -2.16982405 </v>
  </varray>
  <energy>
   <i name="e_fr_energy">   -427.46748542 </i>
   <i name="e_wo_entrp">   -427.44089881 </i>
   <i name="e_0_energy">     -0.05317323 </i>
  </energy>
  <time name="totalsc"> 6772.97 6780.91</time>
  <eigenvalues>
   <array>
    <dimension dim="1">band</dimension>
    <dimension dim="2">kpoint</dimension>
    <dimension dim="3">spin</dimension>
    <field>eigene</field>
    <field>occ</field>
    <set>
     <set comment="spin 1">
      <set comment="kpoint 1">
       <r>  -18.6067    1.0000 </r>
       <r>  -18.5942    1.0000 </r>
       <r>  -18.5937    1.0000 </r>
       <r>  -18.5934    1.0000 </r>
       <r>   -9.4532    1.0000 </r>
       <r>   -8.9606    1.0000 </r>
       <r>   -8.1732    1.0000 </r>
       <r>   -7.5999    1.0000 </r>
       <r>   -7.5991    1.0000 </r>
       <r>   -7.5989    1.0000 </r>
       <r>   -7.5784    1.0000 </r>
       <r>   -7.5772    1.0000 </r>
       <r>   -7.5768    1.0000 </r>
       <r>   -7.2198    1.0000 </r>
       <r>   -7.2191    1.0000 </r>
       <r>   -7.2178    1.0000 </r>
       <r>   -7.1994    1.0000 </r>
       <r>   -7.1470    1.0000 </r>
       <r>   -7.1454    1.0000 </r>
       <r>   -7.1441    1.0000 </r>
       <r>   -6.6269    1.0000 </r>
       <r>   -6.6266    1.0000 </r>
       <r>   -6.6249    1.0000 </r>
       <r>   -6.4856    1.0000 </r>
       <r>   -6.4851    1.0000 </r>
       <r>   -6.4837    1.0000 </r>
       <r>   -6.2515    1.0000 </r>
       <r>   -5.9488    1.0000 </r>
       <r>   -5.9481    1.0000 </r>
       <r>   -5.9478    1.0000 </r>
       <r>   -5.7419    1.0000 </r>
       <r>   -5.7416    1.0000 </r>
       <r>   -5.7411    1.0000 </r>
       <r>   -5.6690    1.0000 </r>
       <r>   -5.6243    1.0000 </r>
       <r>   -5.6239    1.0000 </r>
       <r>   -5.4387    1.0000 </r>
       <r>   -5.4097    1.0000 </r>
       <r>   -5.4095    1.0000 </r>
       <r>   -5.4091    1.0000 </r>
       <r>   -5.3417    1.0000 </r>
       <r>   -5.3411    1.0000 </r>
       <r>   -5.3407    1.0000 </r>
       <r>   -5.3241    1.0000 </r>
       <r>   -5.2833    1.0000 </r>
       <r>   -5.2831    1.0000 </r>
       <r>   -5.2148    1.0000 </r>
       <r>   -5.2088    1.0000 </r>
       <r>   -5.2085    1.0000 </r>
       <r>   -5.2081    1.0000 </r>
       <r>   -5.1344    1.0000 </r>
       <r>   -5.1340    1.0000 </r>
       <r>   -5.1236    1.0000 </r>
       <r>   -5.0554    1.0000 </r>
       <r>   -5.0339    1.0000 </r>
       <r>   -5.0333    1.0000 </r>
       <r>   -5.0039    1.0000 </r>
       <r>   -5.0034    1.0000 </r>
       <r>   -5.0030    1.0000 </r>
       <r>   -4.9785    1.0000 </r>
       <r>   -4.9778    1.0000 </r>
       <r>   -4.9776    1.0000 </r>
       <r>   -4.9627    1.0000 </r>
       <r>   -4.9623    1.0000 </r>
       <r>   -4.9565    1.0000 </r>
       <r>   -4.9564    1.0000 </r>
       <r>   -4.9563    1.0000 </r>
       <r>   -4.9360    1.0000 </r>
       <r>   -4.8834    1.0000 </r>
       <r>   -4.8826    1.0000 </r>
       <r>   -4.8821    1.0000 </r>
       <r>   -4.8543    1.0000 </r>
       <r>   -4.8537    1.0000 </r>
       <r>   -4.8534    1.0000 </r>
       <r>   -4.8402    1.0000 </r>
       <r>   -4.8246    1.0000 </r>
       <r>   -4.8243    1.0000 </r>
       <r>   -4.8121    1.0000 </r>
       <r>   -4.8115    1.0000 </r>
       <r>   -4.8110    1.0000 </r>
       <r>   -4.7492    1.0000 </r>
       <r>   -4.7490    1.0000 </r>
       <r>   -4.7487    1.0000 </r>
       <r>   -4.7073    1.0000 </r>
       <r>   -4.7062    1.0000 </r>
       <r>   -4.7061    1.0000 </r>
       <r>   -4.7027    1.0000 </r>
       <r>   -4.6946    1.0000 </r>
       <r>   -4.6943    1.0000 </r>
       <r>   -4.6218    1.0000 </r>
       <r>   -4.6213    1.0000 </r>
       <r>   -4.6206    1.0000 </r>
       <r>   -4.5861    1.0000 </r>
       <r>   -4.5857    1.0000 </r>
       <r>   -4.5854    1.0000 </r>
       <r>   -4.5818    1.0000 </r>
       <r>   -4.5783    1.0000 </r>
       <r>   -4.5780    1.0000 </r>
       <r>   -4.5453    1.0000 </r>
       <r>   -4.5392    1.0000 </r>
       <r>   -4.5386    1.0000 </r>
       <r>   -4.5384    1.0000 </r>
       <r>   -4.5383    1.0000 </r>
       <r>   -4.5381    1.0000 </r>
       <r>   -4.5279    1.0000 </r>
       <r>   -4.5277    1.0000 </r>
       <r>   -4.5276    1.0000 </r>
       <r>   -4.5041    1.0000 </r>
       <r>   -4.5036    1.0000 </r>
       <r>   -4.5032    1.0000 </r>
       <r>   -4.4604    1.0000 </r>
       <r>   -4.4602    1.0000 </r>
       <r>   -4.4600    1.0000 </r>
       <r>   -4.4545    1.0000 </r>
       <r>   -4.4544    1.0000 </r>
       <r>   -4.4544    1.0000 </r>
       <r>   -4.4476    1.0000 </r>
       <r>   -4.4465    1.0000 </r>
       <r>   -4.4454    1.0000 </r>
       <r>   -4.4067    1.0000 </r>
       <r>   -4.4056    1.0000 </r>
       <r>   -4.4045    1.0000 </r>
       <r>   -4.3885    1.0000 </r>
       <r>   -4.3881    1.0000 </r>
       <r>   -4.3506    1.0000 </r>
       <r>   -4.3497    1.0000 </r>
       <r>   -4.3491    1.0000 </r>
       <r>   -4.3368    1.0000 </r>
       <r>   -4.2426    1.0000 </r>
       <r>   -4.2419    1.0000 </r>
       <r>   -4.2290    1.0000 </r>
       <r>   -4.2289    1.0000 </r>
       <r>   -4.2281    1.0000 </r>
       <r>   -4.2204    1.0000 </r>
       <r>   -4.2195    1.0000 </r>
       <r>   -4.2191    1.0000 </r>
       <r>   -4.2180    1.0000 </r>
       <r>   -4.2174    1.0000 </r>
       <r>   -4.2166    1.0000 </r>
       <r>   -4.2143    1.0000 </r>
       <r>   -4.2139    1.0000 </r>
       <r>   -4.2136    1.0000 </r>
       <r>   -4.2115    1.0000 </r>
       <r>   -4.2110    1.0000 </r>
       <r>   -4.2108    1.0000 </r>
       <r>   -4.1793    1.0000 </r>
       <r>   -4.1793    1.0000 </r>
       <r>   -4.1792    1.0000 </r>
       <r>   -4.0969    1.0000 </r>
       <r>   -4.0968    1.0000 </r>
       <r>   -4.0960    1.0000 </r>
       <r>   -4.0790    1.0000 </r>
       <r>   -4.0785    1.0000 </r>
       <r>   -4.0782    1.0000 </r>
       <r>   -4.0763    1.0000 </r>
       <r>   -4.0759    1.0000 </r>
       <r>   -4.0750    1.0000 </r>
       <r>   -4.0569    1.0000 </r>
       <r>   -4.0564    1.0000 </r>
       <r>   -4.0558    1.0000 </r>
       <r>   -4.0446    1.0000 </r>
       <r>   -4.0441    1.0000 </r>
       <r>   -4.0425    1.0000 </r>
       <r>   -4.0165    1.0000 </r>
       <r>   -4.0045    1.0000 </r>
       <r>   -4.0042    1.0000 </r>
       <r>   -4.0041    1.0000 </r>
       <r>   -3.9692    1.0000 </r>
       <r>   -3.9688    1.0000 </r>
       <r>   -3.9384    1.0000 </r>
       <r>   -3.9376    1.0000 </r>
       <r>   -3.9375    1.0000 </r>
       <r>   -3.9288    1.0000 </r>
       <r>   -3.9288    1.0000 </r>
       <r>   -3.9284    1.0000 </r>
       <r>   -3.9092    1.0000 </r>
       <r>   -3.9091    1.0000 </r>
       <r>   -3.9082    1.0000 </r>
       <r>   -3.8795    1.0000 </r>
       <r>   -3.8791    1.0000 </r>
       <r>   -3.8789    1.0000 </r>
       <r>   -3.8767    1.0000 </r>
       <r>   -3.8764    1.0000 </r>
       <r>   -3.8747    1.0000 </r>
       <r>   -3.8320    1.0000 </r>
       <r>   -3.8313    1.0000 </r>
       <r>   -3.8309    1.0000 </r>
       <r>   -3.8305    1.0000 </r>
       <r>   -3.8122    1.0000 </r>
       <r>   -3.8120    1.0000 </r>
       <r>   -3.8114    1.0000 </r>
       <r>   -3.7990    1.0000 </r>
       <r>   -3.7983    1.0000 </r>
       <r>   -3.7978    1.0000 </r>
       <r>   -3.7866    1.0000 </r>
       <r>   -3.7861    1.0000 </r>
       <r>   -3.7859    1.0000 </r>
       <r>   -3.7750    1.0000 </r>
       <r>   -3.7744    1.0000 </r>
       <r>   -3.7740    1.0000 </r>
       <r>   -3.7509    1.0000 </r>
       <r>   -3.7502    1.0000 </r>
       <r>   -3.7496    1.0000 </r>
       <r>   -3.7089    1.0000 </r>
       <r>   -3.7087    1.0000 </r>
       <r>   -3.7085    1.0000 </r>
       <r>   -3.7072    1.0000 </r>
       <r>   -3.7067    1.0000 </r>
       <r>   -3.7065    1.0000 </r>
       <r>   -3.6822    1.0000 </r>
       <r>   -3.6821    1.0000 </r>
       <r>   -3.6819    1.0000 </r>
       <r>   -3.6768    1.0000 </r>
       <r>   -3.6765    1.0000 </r>
       <r>   -3.6763    1.0000 </r>
       <r>   -3.6687    1.0000 </r>
       <r>   -3.6682    1.0000 </r>
       <r>   -3.6412    1.0000 </r>
       <r>   -3.6405    1.0000 </r>
       <r>   -3.6398    1.0000 </r>
       <r>   -3.6176    1.0000 </r>
       <r>   -3.6160    1.0000 </r>
       <r>   -3.6155    1.0000 </r>
       <r>   -3.6149    1.0000 </r>
       <r>   -3.6026    1.0000 </r>
       <r>   -3.6026    1.0000 </r>
       <r>   -3.6019    1.0000 </r>
       <r>   -3.6011    1.0000 </r>
       <r>   -3.6008    1.0000 </r>
       <r>   -3.6007    1.0000 </r>
       <r>   -3.5978    1.0000 </r>
       <r>   -3.5969    1.0000 </r>
       <r>   -3.5965    1.0000 </r>
       <r>   -3.5813    1.0000 </r>
       <r>   -3.5809    1.0000 </r>
       <r>   -3.5800    1.0000 </r>
       <r>   -3.5508    1.0000 </r>
       <r>   -3.5499    1.0000 </r>
       <r>   -3.5495    1.0000 </r>
       <r>   -3.5369    1.0000 </r>
       <r>   -3.5302    1.0000 </r>
       <r>   -3.5114    1.0000 </r>
       <r>   -3.5114    1.0000 </r>
       <r>   -3.4478    1.0000 </r>
       <r>   -3.4476    1.0000 </r>
       <r>   -3.4474    1.0000 </r>
       <r>   -3.4418    1.0000 </r>
       <r>   -3.4337    1.0000 </r>
       <r>   -3.4335    1.0000 </r>
       <r>   -3.4328    1.0000 </r>
       <r>   -3.4285    1.0000 </r>
       <r>   -3.4279    1.0000 </r>
       <r>   -3.4276    1.0000 </r>
       <r>   -3.4190    1.0000 </r>
       <r>   -3.4186    1.0000 </r>
       <r>   -3.4185    1.0000 </r>
       <r>   -3.4178    1.0000 </r>
       <r>   -3.4178    1.0000 </r>
       <r>   -3.4158    1.0000 </r>
       <r>   -3.4156    1.0000 </r>
       <r>   -3.4155    1.0000 </r>
       <r>   -3.4097    1.0000 </r>
       <r>   -3.3985    1.0000 </r>
       <r>   -3.3981    1.0000 </r>
       <r>   -3.3978    1.0000 </r>
       <r>   -3.3864    1.0000 </r>
       <r>   -3.3863    1.0000 </r>
       <r>   -3.3751    1.0000 </r>
       <r>   -3.3635    1.0000 </r>
       <r>   -3.3630    1.0000 </r>
       <r>   -3.3622    1.0000 </r>
       <r>   -3.3499    1.0000 </r>
       <r>   -3.3498    1.0000 </r>
       <r>   -3.3461    1.0000 </r>
       <r>   -3.3457    1.0000 </r>
       <r>   -3.3457    1.0000 </r>
       <r>   -3.3357    1.0000 </r>
       <r>   -3.3356    1.0000 </r>
       <r>   -3.3354    1.0000 </r>
       <r>   -3.3149    1.0000 </r>
       <r>   -3.3147    1.0000 </r>
       <r>   -3.3048    1.0000 </r>
       <r>   -3.3043    1.0000 </r>
       <r>   -3.3038    1.0000 </r>
       <r>   -3.2724    1.0000 </r>
       <r>   -3.2723    1.0000 </r>
       <r>   -3.2720    1.0000 </r>
       <r>   -3.2684    1.0000 </r>
       <r>   -3.2679    1.0000 </r>
       <r>   -3.2588    1.0000 </r>
       <r>   -3.2587    1.0000 </r>
       <r>   -3.2552    1.0000 </r>
[...]
       <r>   -14.5223     0.0000     8.0000 </r>
       <r>   -14.4282     0.0000     8.0000 </r>
       <r>   -14.3340     0.0000     8.0000 </r>
       <r>   -14.2398     0.0000     8.0000 </r>
       <r>   -14.1456     0.0000     8.0000 </r>
       <r>   -14.0514     0.0000     8.0000 </r>
       <r>   -13.9572     0.0000     8.0000 </r>
       <r>   -13.8630     0.0000     8.0000 </r>
       <r>   -13.7688     0.0000     8.0000 </r>
       <r>   -13.6747     0.0000     8.0000 </r>
       <r>   -13.5805     0.0000     8.0000 </r>
       <r>   -13.4863     0.0000     8.0000 </r>
       <r>   -13.3921     0.0000     8.0000 </r>
       <r>   -13.2979     0.0000     8.0000 </r>
       <r>   -13.2037     0.0000     8.0000 </r>
       <r>   -13.1095     0.0000     8.0000 </r>
       <r>   -13.0153     0.0000     8.0000 </r>
       <r>   -12.9212     0.0000     8.0000 </r>
       <r>   -12.8270     0.0000     8.0000 </r>
       <r>   -12.7328     0.0000     8.0000 </r>
       <r>   -12.6386     0.0000     8.0000 </r>
       <r>   -12.5444     0.0000     8.0000 </r>
       <r>   -12.4502     0.0000     8.0000 </r>
       <r>   -12.3560     0.0000     8.0000 </r>
       <r>   -12.2618     0.0000     8.0000 </r>
       <r>   -12.1677     0.0000     8.0000 </r>
       <r>   -12.0735     0.0000     8.0000 </r>
       <r>   -11.9793     0.0000     8.0000 </r>
       <r>   -11.8851     0.0000     8.0000 </r>
       <r>   -11.7909     0.0000     8.0000 </r>
       <r>   -11.6967     0.0000     8.0000 </r>
       <r>   -11.6025     0.0000     8.0000 </r>
       <r>   -11.5083     0.0000     8.0000 </r>
       <r>   -11.4142     0.0000     8.0000 </r>
       <r>   -11.3200     0.0000     8.0000 </r>
       <r>   -11.2258     0.0000     8.0000 </r>
       <r>   -11.1316     0.0000     8.0000 </r>
       <r>   -11.0374     0.0000     8.0000 </r>
       <r>   -10.9432     0.0000     8.0000 </r>
       <r>   -10.8490     0.0000     8.0000 </r>
       <r>   -10.7548     0.0000     8.0000 </r>
       <r>   -10.6607     0.0000     8.0000 </r>
       <r>   -10.5665     0.0000     8.0000 </r>
       <r>   -10.4723     0.0000     8.0000 </r>
       <r>   -10.3781     0.0000     8.0000 </r>
       <r>   -10.2839     0.0000     8.0000 </r>
       <r>   -10.1897     0.0000     8.0000 </r>
       <r>   -10.0955     0.0000     8.0000 </r>
       <r>   -10.0013     0.0000     8.0000 </r>
       <r>    -9.9072     0.0000     8.0000 </r>
       <r>    -9.8130     0.0000     8.0000 </r>
       <r>    -9.7188     0.0000     8.0000 </r>
       <r>    -9.6246     0.0000     8.0000 </r>
       <r>    -9.5304     0.0193     8.0018 </r>
       <r>    -9.4362     0.8995     8.0865 </r>
       <r>    -9.3420     3.2769     8.3952 </r>
       <r>    -9.2478     5.0104     8.8671 </r>
       <r>    -9.1537     0.2791     8.8934 </r>
       <r>    -9.0595     5.8582     9.4451 </r>
       <r>    -8.9653     6.2528    10.0341 </r>
       <r>    -8.8711     6.4332    10.6400 </r>
       <r>    -8.7769     6.1870    11.2228 </r>
       <r>    -8.6827     0.5832    11.2777 </r>
       <r>    -8.5885    15.5165    12.7391 </r>
       <r>    -8.4943    11.2476    13.7985 </r>
       <r>    -8.4002     6.2813    14.3902 </r>
       <r>    -8.3060     6.1911    14.9733 </r>
       <r>    -8.2118     0.7998    15.0486 </r>
       <r>    -8.1176    12.8702    16.2608 </r>
       <r>    -8.0234    14.5914    17.6352 </r>
       <r>    -7.9292    13.2662    18.8847 </r>
       <r>    -7.8350    19.5516    20.7262 </r>
       <r>    -7.7408     6.8888    21.3750 </r>
       <r>    -7.6467     6.0420    21.9441 </r>
       <r>    -7.5525    13.0521    23.1735 </r>
       <r>    -7.4583    15.7092    24.6531 </r>
       <r>    -7.3641    16.4626    26.2036 </r>
       <r>    -7.2699     8.8950    27.0414 </r>
       <r>    -7.1757    20.5388    28.9759 </r>
       <r>    -7.0815    16.3077    30.5119 </r>
       <r>    -6.9873    13.2432    31.7593 </r>
       <r>    -6.8932    16.5084    33.3141 </r>
       <r>    -6.7990    31.8355    36.3127 </r>
       <r>    -6.7048    15.3276    37.7563 </r>
       <r>    -6.6106    18.3734    39.4869 </r>
       <r>    -6.5164    13.4115    40.7501 </r>
       <r>    -6.4222    24.4368    43.0517 </r>
       <r>    -6.3280    23.6633    45.2805 </r>
       <r>    -6.2338    18.6257    47.0348 </r>
       <r>    -6.1396    46.6874    51.4322 </r>
       <r>    -6.0455    21.0314    53.4131 </r>
       <r>    -5.9513    45.8213    57.7289 </r>
       <r>    -5.8571    21.3265    59.7376 </r>
       <r>    -5.7629    20.4838    61.6669 </r>
       <r>    -5.6687    59.5705    67.2777 </r>
       <r>    -5.5745    86.9644    75.4686 </r>
       <r>    -5.4803    74.1825    82.4557 </r>
       <r>    -5.3861    60.5905    88.1626 </r>
       <r>    -5.2920    95.2728    97.1361 </r>
       <r>    -5.1978    89.1114   105.5293 </r>
       <r>    -5.1036   108.0054   115.7020 </r>
       <r>    -5.0094   119.3462   126.9430 </r>
       <r>    -4.9152   145.3006   140.6285 </r>
       <r>    -4.8210   127.6163   152.6483 </r>
       <r>    -4.7268   126.5764   164.5703 </r>
       <r>    -4.6326   166.2673   180.2306 </r>
       <r>    -4.5385   204.4714   199.4892 </r>
       <r>    -4.4443   240.9568   222.1844 </r>
       <r>    -4.3501   284.3614   248.9677 </r>
       <r>    -4.2559   253.9121   272.8830 </r>
       <r>    -4.1617   219.5682   293.5636 </r>
       <r>    -4.0675   206.6809   313.0304 </r>
       <r>    -3.9733   219.1120   333.6680 </r>
       <r>    -3.8791   273.0248   359.3836 </r>
       <r>    -3.7850   278.7229   385.6358 </r>
       <r>    -3.6908   321.5685   415.9235 </r>
       <r>    -3.5966   318.6826   445.9395 </r>
       <r>    -3.5024   325.0624   476.5563 </r>
       <r>    -3.4082   392.6589   513.5399 </r>
       <r>    -3.3140   477.4606   558.5108 </r>
       <r>    -3.2198   505.8738   606.1578 </r>
       <r>    -3.1256   438.4119   647.4507 </r>
       <r>    -3.0315   452.0641   690.0296 </r>
       <r>    -2.9373   325.7823   720.7142 </r>
       <r>    -2.8431   362.6229   754.8688 </r>
       <r>    -2.7489   347.3994   787.5895 </r>
       <r>    -2.6547   410.2361   826.2286 </r>
       <r>    -2.5605   409.6400   864.8116 </r>
       <r>    -2.4663   389.0017   901.4507 </r>
       <r>    -2.3721   429.3794   941.8929 </r>
       <r>    -2.2780   419.8816   981.4406 </r>
       <r>    -2.1838   440.3653  1022.9175 </r>
       <r>    -2.0896   530.1102  1072.8473 </r>
       <r>    -1.9954   616.1014  1130.8764 </r>
       <r>    -1.9012   435.1698  1171.8639 </r>
       <r>    -1.8070   162.3941  1187.1595 </r>
       <r>    -1.7128    69.5606  1193.7112 </r>
       <r>    -1.6186    52.2232  1198.6300 </r>
       <r>    -1.5245    58.6191  1204.1512 </r>
       <r>    -1.4303    59.3262  1209.7390 </r>
       <r>    -1.3361    89.6227  1218.1803 </r>
       <r>    -1.2419    59.4592  1223.7806 </r>
       <r>    -1.1477    35.9550  1227.1671 </r>
       <r>    -1.0535    11.6056  1228.2602 </r>
       <r>    -0.9593    47.7599  1232.7586 </r>
       <r>    -0.8651    38.0176  1236.3394 </r>
       <r>    -0.7710    44.0011  1240.4838 </r>
       <r>    -0.6768    46.9118  1244.9023 </r>
       <r>    -0.5826    58.2091  1250.3849 </r>
       <r>    -0.4884    20.2877  1252.2957 </r>
       <r>    -0.3942    34.8512  1255.5782 </r>
       <r>    -0.3000    37.5762  1259.1175 </r>
       <r>    -0.2058    41.1246  1262.9909 </r>
       <r>    -0.1116    23.7426  1265.2271 </r>
       <r>    -0.0175    35.0330  1268.5268 </r>
       <r>     0.0767    48.6486  1273.1089 </r>
       <r>     0.1709    42.5190  1277.1137 </r>
       <r>     0.2651    13.0696  1278.3447 </r>
       <r>     0.3593    25.5056  1280.7470 </r>
       <r>     0.4535    43.3872  1284.8335 </r>
       <r>     0.5477    34.0325  1288.0390 </r>
       <r>     0.6419    28.5118  1290.7244 </r>
       <r>     0.7360    54.2184  1295.8311 </r>
       <r>     0.8302    35.4010  1299.1655 </r>
       <r>     0.9244    31.4156  1302.1244 </r>
       <r>     1.0186    29.1102  1304.8662 </r>
       <r>     1.1128    29.0322  1307.6007 </r>
       <r>     1.2070    47.1945  1312.0458 </r>
       <r>     1.3012    19.6029  1313.8922 </r>
       <r>     1.3954    20.2678  1315.8012 </r>
       <r>     1.4895    37.1997  1319.3049 </r>
       <r>     1.5837    32.0934  1322.3277 </r>
       <r>     1.6779    27.9617  1324.9614 </r>
       <r>     1.7721    20.3433  1326.8774 </r>
       <r>     1.8663    41.4216  1330.7788 </r>
       <r>     1.9605    37.2089  1334.2835 </r>
       <r>     2.0547    39.3594  1337.9906 </r>
       <r>     2.1489    24.6885  1340.3160 </r>
       <r>     2.2430    37.9354  1343.8890 </r>
       <r>     2.3372    24.6576  1346.2115 </r>
       <r>     2.4314    22.4441  1348.3254 </r>
       <r>     2.5256    14.8174  1349.7210 </r>
       <r>     2.6198    11.7028  1350.8233 </r>
       <r>     2.7140    19.7426  1352.6828 </r>
       <r>     2.8082    32.5759  1355.7510 </r>
       <r>     2.9024    28.0522  1358.3932 </r>
       <r>     2.9965    27.1444  1360.9499 </r>
       <r>     3.0907    19.4943  1362.7860 </r>
       <r>     3.1849    23.3781  1364.9879 </r>
       <r>     3.2791    21.1323  1366.9783 </r>
       <r>     3.3733     8.7370  1367.8012 </r>
       <r>     3.4675    30.5746  1370.6810 </r>
       <r>     3.5617    31.9624  1373.6914 </r>
       <r>     3.6559    27.8189  1376.3116 </r>
       <r>     3.7500     7.1804  1376.9879 </r>
       <r>     3.8442    21.6560  1379.0277 </r>
       <r>     3.9384    44.3450  1383.2044 </r>
       <r>     4.0326    32.6232  1386.2771 </r>
       <r>     4.1268    41.9636  1390.2296 </r>
       <r>     4.2210    50.9745  1395.0307 </r>
       <r>     4.3152    35.2440  1398.3503 </r>
       <r>     4.4094    18.5483  1400.0973 </r>
       <r>     4.5035    22.9907  1402.2627 </r>
       <r>     4.5977    31.6753  1405.2461 </r>
       <r>     4.6919    37.8934  1408.8152 </r>
       <r>     4.7861    41.0379  1412.6805 </r>
       <r>     4.8803    47.7489  1417.1778 </r>
       <r>     4.9745    38.1949  1420.7753 </r>
       <r>     5.0687    40.2270  1424.5642 </r>
       <r>     5.1629    37.0779  1428.0565 </r>
       <r>     5.2570    28.8539  1430.7742 </r>
       <r>     5.3512    59.3551  1436.3647 </r>
       <r>     5.4454    37.1583  1439.8645 </r>
       <r>     5.5396    54.2426  1444.9735 </r>
       <r>     5.6338    34.0450  1448.1801 </r>
       <r>     5.7280    34.4232  1451.4224 </r>
       <r>     5.8222    33.5366  1454.5811 </r>
       <r>     5.9164    33.2017  1457.7083 </r>
       <r>     6.0105    61.4227  1463.4935 </r>
       <r>     6.1047    54.4402  1468.6211 </r>
       <r>     6.1989    44.5731  1472.8194 </r>
       <r>     6.2931    40.4435  1476.6286 </r>
       <r>     6.3873    36.7312  1480.0882 </r>
       <r>     6.4815    51.0449  1484.8960 </r>
       <r>     6.5757    42.5813  1488.9067 </r>
       <r>     6.6699    35.5069  1492.2510 </r>
       <r>     6.7640    37.4366  1495.7770 </r>
       <r>     6.8582    58.9297  1501.3275 </r>
       <r>     6.9524    49.0443  1505.9468 </r>
       <r>     7.0466    36.7047  1509.4040 </r>
       <r>     7.1408    26.6419  1511.9133 </r>
       <r>     7.2350     0.9203  1512.0000 </r>
       <r>     7.3292     0.0001  1512.0000 </r>
       <r>     7.4234     0.0000  1512.0000 </r>
       <r>     7.5175     0.0000  1512.0000 </r>
       <r>     7.6117     0.0000  1512.0000 </r>
       <r>     7.7059     0.0000  1512.0000 </r>
       <r>     7.8001     0.0000  1512.0000 </r>
       <r>     7.8943     0.0000  1512.0000 </r>
       <r>     7.9885     0.0000  1512.0000 </r>
       <r>     8.0827     0.0000  1512.0000 </r>
       <r>     8.1769     0.0000  1512.0000 </r>
       <r>     8.2710     0.0000  1512.0000 </r>
       <r>     8.3652     0.0000  1512.0000 </r>
      </set>
     </set>
    </array>
   </total>
  </dos>
 </calculation>
 <structure name="finalpos" >
  <crystal>
   <varray name="basis" >
    <v>      10.28518105       0.00000000       0.00000000 </v>
    <v>       5.14259052       8.90722807       0.00000000 </v>
    <v>       0.00000000       0.00000000      27.79016876 </v>
   </varray>
   <i name="volume">   2545.92553775 </i>
   <varray name="rec_basis" >
    <v>       0.09722726      -0.05613419       0.00000000 </v>
    <v>       0.00000000       0.11226837       0.00000000 </v>
    <v>       0.00000000       0.00000000       0.03598395 </v>
   </varray>
  </crystal>
  <varray name="positions" >
   <v>       0.00000000       0.00000000       0.22663990 </v>
   <v>       0.00000000       0.50000000       0.22663990 </v>
   <v>       0.50000000       0.00000000       0.22663990 </v>
   <v>       0.50000000       0.50000000       0.22663990 </v>
   <v>       0.00000000       0.25000000       0.22663990 </v>
   <v>       0.00000000       0.75000000       0.22663990 </v>
   <v>       0.50000000       0.25000000       0.22663990 </v>
   <v>       0.50000000       0.75000000       0.22663990 </v>
   <v>       0.25000000       0.00000000       0.22663990 </v>
   <v>       0.25000000       0.50000000       0.22663990 </v>
   <v>       0.75000000       0.00000000       0.22663990 </v>
   <v>       0.75000000       0.50000000       0.22663990 </v>
   <v>       0.25000000       0.25000000       0.22663990 </v>
   <v>       0.25000000       0.75000000       0.22663990 </v>
   <v>       0.75000000       0.25000000       0.22663990 </v>
   <v>       0.75000000       0.75000000       0.22663990 </v>
   <v>       0.16666666       0.16666666       0.30218653 </v>
   <v>       0.16666666       0.66666666       0.30218653 </v>
   <v>       0.66666666       0.16666666       0.30218653 </v>
   <v>       0.66666666       0.66666666       0.30218653 </v>
   <v>       0.16666666       0.41666666       0.30218653 </v>
   <v>       0.16666666       0.91666666       0.30218653 </v>
   <v>       0.66666666       0.41666666       0.30218653 </v>
   <v>       0.66666666       0.91666666       0.30218653 </v>
   <v>       0.41666666       0.16666666       0.30218653 </v>
   <v>       0.41666666       0.66666666       0.30218653 </v>
   <v>       0.91666666       0.16666666       0.30218653 </v>
   <v>       0.91666666       0.66666666       0.30218653 </v>
   <v>       0.41666666       0.41666666       0.30218653 </v>
   <v>       0.41666666       0.91666666       0.30218653 </v>
   <v>       0.91666666       0.41666666       0.30218653 </v>
   <v>       0.91666666       0.91666666       0.30218653 </v>
   <v>       0.08333333       0.08333333       0.37716320 </v>
   <v>       0.08333333       0.58333333       0.37716320 </v>
   <v>       0.58333333       0.08333333       0.37716320 </v>
   <v>       0.58333333       0.58333333       0.37716320 </v>
   <v>       0.08351614       0.33324190       0.37729758 </v>
   <v>       0.08351614       0.83324190       0.37729758 </v>
   <v>       0.58351614       0.33324190       0.37729758 </v>
   <v>       0.58351614       0.83324190       0.37729758 </v>
   <v>       0.33324190       0.08351614       0.37729758 </v>
   <v>       0.33324190       0.58351614       0.37729758 </v>
   <v>       0.83324190       0.08351614       0.37729758 </v>
   <v>       0.83324190       0.58351614       0.37729758 </v>
   <v>       0.33324190       0.33324190       0.37729758 </v>
   <v>       0.33324190       0.83324190       0.37729758 </v>
   <v>       0.83324190       0.33324190       0.37729758 </v>
   <v>       0.83324190       0.83324190       0.37729758 </v>
   <v>       0.00012997       0.00012997       0.45242342 </v>
   <v>       0.00012997       0.50012997       0.45242342 </v>
   <v>       0.50012997       0.00012997       0.45242342 </v>
   <v>       0.50012997       0.50012997       0.45242342 </v>
   <v>       0.00012997       0.24974005       0.45242342 </v>
   <v>       0.00012997       0.74974005       0.45242342 </v>
   <v>       0.50012997       0.24974005       0.45242342 </v>
   <v>       0.50012997       0.74974005       0.45242342 </v>
   <v>       0.24974005       0.00012997       0.45242342 </v>
   <v>       0.24974005       0.50012997       0.45242342 </v>
   <v>       0.74974005       0.00012997       0.45242342 </v>
   <v>       0.74974005       0.50012997       0.45242342 </v>
   <v>       0.25000000       0.25000000       0.45288750 </v>
   <v>       0.25000000       0.75000000       0.45288750 </v>
   <v>       0.75000000       0.25000000       0.45288750 </v>
   <v>       0.75000000       0.75000000       0.45288750 </v>
   <v>       0.16660598       0.16660598       0.52813907 </v>
   <v>       0.16660598       0.66660598       0.52813907 </v>
   <v>       0.66660598       0.16660598       0.52813907 </v>
   <v>       0.66660598       0.66660598       0.52813907 </v>
   <v>       0.16660598       0.41678801       0.52813907 </v>
   <v>       0.16660598       0.91678801       0.52813907 </v>
   <v>       0.66660598       0.41678801       0.52813907 </v>
   <v>       0.66660598       0.91678801       0.52813907 </v>
   <v>       0.41678801       0.16660598       0.52813907 </v>
   <v>       0.41678801       0.66660598       0.52813907 </v>
   <v>       0.91678801       0.16660598       0.52813907 </v>
   <v>       0.91678801       0.66660598       0.52813907 </v>
   <v>       0.41666666       0.41666666       0.52741939 </v>
   <v>       0.41666666       0.91666666       0.52741939 </v>
   <v>       0.91666666       0.41666666       0.52741939 </v>
   <v>       0.91666666       0.91666666       0.52741939 </v>
   <v>       0.08333333       0.08333333       0.60253339 </v>
   <v>       0.08333333       0.58333333       0.60253339 </v>
   <v>       0.58333333       0.08333333       0.60253339 </v>
   <v>       0.58333333       0.58333333       0.60253339 </v>
   <v>       0.08210321       0.33275757       0.60269575 </v>
   <v>       0.08130935       0.83434529       0.60320464 </v>
   <v>       0.58130935       0.33434529       0.60320464 </v>
   <v>       0.58130935       0.83434529       0.60320464 </v>
   <v>       0.33434529       0.08130935       0.60320464 </v>
   <v>       0.33434529       0.58130935       0.60320464 </v>
   <v>       0.83434529       0.08130935       0.60320464 </v>
   <v>       0.83434529       0.58130935       0.60320464 </v>
   <v>       0.33434529       0.33434529       0.60320464 </v>
   <v>       0.33434529       0.83434529       0.60320464 </v>
   <v>       0.83434529       0.33434529       0.60320464 </v>
   <v>       0.83434529       0.83434529       0.60320464 </v>
   <v>       0.49714648       0.49714648       0.68057248 </v>
   <v>       0.49714648       0.99714648       0.68057248 </v>
   <v>       0.99714648       0.49714648       0.68057248 </v>
   <v>       0.99714648       0.99714648       0.68057248 </v>
   <v>       0.49714648       0.25570704       0.68057248 </v>
   <v>       0.49714648       0.75570704       0.68057248 </v>
   <v>       0.99714648       0.25570704       0.68057248 </v>
   <v>       0.99714648       0.75570704       0.68057248 </v>
   <v>       0.25570704       0.49714648       0.68057248 </v>
   <v>       0.25570704       0.99714648       0.68057248 </v>
   <v>       0.75570704       0.49714648       0.68057248 </v>
   <v>       0.75570704       0.99714648       0.68057248 </v>
   <v>       0.25000000       0.25000000       0.67480871 </v>
   <v>       0.25000000       0.75000000       0.67480871 </v>
   <v>       0.75000000       0.25000000       0.67480871 </v>
   <v>       0.75000000       0.75000000       0.67480871 </v>
   <v>       0.08333333       0.08333333       0.72043888 </v>
   <v>       0.08333333       0.58333333       0.72043888 </v>
   <v>       0.58333333       0.08333333       0.72043888 </v>
   <v>       0.58333333       0.58333333       0.72043888 </v>
  </varray>
 </structure>
</modeling>
