<?xml version="1.0" encoding="ISO-8859-1"?>
<modeling>
 <generator>
  <i name="program" type="string">vasp </i>
  <i name="version" type="string">5.4.4.18Apr17-6-g9f103f2a35  </i>
  <i name="subversion" type="string">(build Feb 09 2021 16:27:36) complex            parallel </i>
  <i name="platform" type="string">IFC15_impi </i>
  <i name="date" type="string">2021 04 29 </i>
  <i name="time" type="string">03:21:06 </i>
 </generator>
 <incar>
  <i type="int" name="ISTART">     0</i>
  <i type="string" name="PREC">a</i>
  <i type="logical" name="ADDGRID"> T  </i>
  <i type="int" name="NELM">   300</i>
  <i type="int" name="NELMIN">     5</i>
  <i type="int" name="IBRION">    -1</i>
  <i name="EDIFF">      0.00000100</i>
  <i name="ENCUT">    500.00000000</i>
  <i type="logical" name="LREAL"> F  </i>
  <i type="int" name="ISMEAR">     0</i>
  <i name="SIGMA">      0.05000000</i>
  <i type="logical" name="LWAVE"> F  </i>
  <i type="logical" name="LCHARG"> F  </i>
  <v type="int" name="KPOINT_BSE">    -1     0     0     0</v>
  <i type="int" name="NELM">   300</i>
 </incar>
 <structure name="primitive_cell" >
  <crystal>
   <varray name="basis" >
    <v>      10.28518105       0.00000000       0.00000000 </v>
    <v>       5.14259052       8.90722807       0.00000000 </v>
    <v>       0.00000000       0.00000000      27.79016876 </v>
   </varray>
   <i name="volume">   2545.92553775 </i>
   <varray name="rec_basis" >
    <v>       0.09722726      -0.05613419       0.00000000 </v>
    <v>       0.00000000       0.11226837       0.00000000 </v>
    <v>       0.00000000       0.00000000       0.03598395 </v>
   </varray>
  </crystal>
  <varray name="positions" >
   <v>       0.00000000       0.00000000       0.22663990 </v>
   <v>       0.16666666      -0.08333334       0.30218653 </v>
   <v>      -0.08333334       0.16666666       0.30218653 </v>
   <v>       0.25000000       0.00000000       0.22663990 </v>
   <v>       0.00000000      -0.25000000       0.22663990 </v>
   <v>       0.25000000      -0.25000000       0.22663990 </v>
   <v>      -0.25000000       0.25000000       0.22663990 </v>
   <v>       0.00000000       0.25000000       0.22663990 </v>
   <v>      -0.25000000       0.00000000       0.22663990 </v>
   <v>      -0.08333334      -0.08333334       0.30218653 </v>
   <v>       0.16666666       0.16666666       0.30218653 </v>
   <v>       0.16666666      -0.33333334       0.30218653 </v>
   <v>      -0.33333334       0.16666666       0.30218653 </v>
   <v>       0.08333333       0.08333333       0.37716320 </v>
   <v>       0.08351614      -0.16675810       0.37729758 </v>
   <v>      -0.16675810       0.08351614       0.37729758 </v>
   <v>       0.41666666      -0.08333334       0.30218653 </v>
   <v>      -0.08333334       0.41666666       0.30218653 </v>
   <v>      -0.33333334       0.41666666       0.30218653 </v>
   <v>       0.41666666      -0.33333334       0.30218653 </v>
   <v>      -0.50000000       0.25000000       0.22663990 </v>
   <v>       0.25000000       0.25000000       0.22663990 </v>
   <v>       0.25000000      -0.50000000       0.22663990 </v>
   <v>      -0.25000000      -0.50000000       0.22663990 </v>
   <v>      -0.25000000      -0.25000000       0.22663990 </v>
   <v>      -0.50000000      -0.25000000       0.22663990 </v>
   <v>      -0.08333334      -0.33333334       0.30218653 </v>
   <v>      -0.33333334      -0.08333334       0.30218653 </v>
   <v>       0.33324190      -0.16675810       0.37729758 </v>
   <v>      -0.16675810       0.33324190       0.37729758 </v>
   <v>      -0.16675810      -0.16675810       0.37729758 </v>
   <v>       0.00000000      -0.50000000       0.22663990 </v>
   <v>      -0.50000000      -0.50000000       0.22663990 </v>
   <v>      -0.50000000       0.00000000       0.22663990 </v>
   <v>      -0.41666667       0.08333333       0.37716320 </v>
   <v>       0.08333333      -0.41666667       0.37716320 </v>
   <v>       0.33324190      -0.41648386       0.37729758 </v>
   <v>      -0.41648386       0.33324190       0.37729758 </v>
   <v>       0.33324190       0.08351614       0.37729758 </v>
   <v>       0.08351614       0.33324190       0.37729758 </v>
   <v>       0.16666666       0.41666666       0.30218653 </v>
   <v>       0.41666666       0.16666666       0.30218653 </v>
   <v>       0.41666666       0.41666666       0.30218653 </v>
   <v>       0.00012997       0.00012997       0.45242342 </v>
   <v>      -0.33333334      -0.33333334       0.30218653 </v>
   <v>       0.00012997       0.24974005       0.45242342 </v>
   <v>       0.24974005       0.00012997       0.45242342 </v>
   <v>      -0.25025995       0.00012997       0.45242342 </v>
   <v>       0.00012997      -0.25025995       0.45242342 </v>
   <v>       0.25000000      -0.25000000       0.45288750 </v>
   <v>      -0.25000000       0.25000000       0.45288750 </v>
   <v>      -0.41666667      -0.41666667       0.37716320 </v>
   <v>      -0.41648386      -0.16675810       0.37729758 </v>
   <v>      -0.16675810      -0.41648386       0.37729758 </v>
   <v>       0.33324190       0.33324190       0.37729758 </v>
   <v>       0.24974005      -0.49987003       0.45242342 </v>
   <v>      -0.49987003       0.24974005       0.45242342 </v>
   <v>      -0.49987003      -0.25025995       0.45242342 </v>
   <v>      -0.25025995      -0.49987003       0.45242342 </v>
   <v>       0.25000000       0.25000000       0.45288750 </v>
   <v>      -0.25000000      -0.25000000       0.45288750 </v>
   <v>       0.00012997      -0.49987003       0.45242342 </v>
   <v>      -0.49987003       0.00012997       0.45242342 </v>
   <v>      -0.49987003      -0.49987003       0.45242342 </v>
   <v>      -0.08333334      -0.08333334      -0.47258061 </v>
   <v>      -0.08321199       0.16660598      -0.47186093 </v>
   <v>       0.16660598      -0.08321199      -0.47186093 </v>
   <v>       0.16660598       0.16660598      -0.47186093 </v>
   <v>      -0.33339402       0.16660598      -0.47186093 </v>
   <v>       0.16660598      -0.33339402      -0.47186093 </v>
   <v>       0.41666666      -0.08333334      -0.47258061 </v>
   <v>      -0.08333334       0.41666666      -0.47258061 </v>
   <v>      -0.33339402      -0.08321199      -0.47186093 </v>
   <v>      -0.08321199      -0.33339402      -0.47186093 </v>
   <v>      -0.33339402       0.41678801      -0.47186093 </v>
   <v>       0.41678801      -0.33339402      -0.47186093 </v>
   <v>       0.41804166       0.41666666      -0.47207172 </v>
   <v>       0.16660598       0.41678801      -0.47186093 </v>
   <v>       0.41678801       0.16660598      -0.47186093 </v>
   <v>      -0.33339402      -0.33339402      -0.47186093 </v>
   <v>       0.08333333       0.08333333      -0.39746661 </v>
   <v>      -0.16565471       0.08130935      -0.39679536 </v>
   <v>       0.08130935      -0.16565471      -0.39679536 </v>
   <v>      -0.16565471      -0.16565471      -0.39679536 </v>
   <v>      -0.16565471       0.33434529      -0.39679536 </v>
   <v>       0.33434529      -0.16565471      -0.39679536 </v>
   <v>      -0.41666667       0.08333333      -0.39746661 </v>
   <v>       0.08333333      -0.41666667      -0.39746661 </v>
   <v>       0.08130935       0.33434529      -0.39679536 </v>
   <v>       0.33434529       0.08130935      -0.39679536 </v>
   <v>       0.33434529      -0.41869065      -0.39679536 </v>
   <v>      -0.41869065       0.33434529      -0.39679536 </v>
   <v>      -0.41666667      -0.41666667      -0.39746661 </v>
   <v>      -0.41869065      -0.16565471      -0.39679536 </v>
   <v>      -0.16565471      -0.41869065      -0.39679536 </v>
   <v>       0.33434529       0.33434529      -0.39679536 </v>
   <v>      -0.00285352      -0.00285352      -0.31942752 </v>
   <v>       0.25000000      -0.25000000      -0.32519129 </v>
   <v>      -0.25000000       0.25000000      -0.32519129 </v>
   <v>      -0.24429296      -0.00285352      -0.31942752 </v>
   <v>      -0.00285352      -0.24429296      -0.31942752 </v>
   <v>      -0.00285352       0.25570704      -0.31942752 </v>
   <v>       0.25570704      -0.00285352      -0.31942752 </v>
   <v>       0.25000000       0.25000000      -0.32519129 </v>
   <v>      -0.25000000      -0.25000000      -0.32519129 </v>
   <v>       0.49714648      -0.24429296      -0.31942752 </v>
   <v>      -0.24429296       0.49714648      -0.31942752 </v>
   <v>       0.25570704       0.49714648      -0.31942752 </v>
   <v>       0.49714648       0.25570704      -0.31942752 </v>
   <v>      -0.00285352       0.49714648      -0.31942752 </v>
   <v>       0.49714648      -0.00285352      -0.31942752 </v>
   <v>       0.49714648       0.49714648      -0.31942752 </v>
   <v>       0.08333333       0.08333333      -0.27956112 </v>
   <v>      -0.41666667       0.08333333      -0.27956112 </v>
   <v>       0.08333333      -0.41666667      -0.27956112 </v>
   <v>      -0.41666667      -0.41666667      -0.27956112 </v>
  </varray>
 </structure>
 <varray name="primitive_index" >
  <v type="int" >        1 </v>
  <v type="int" >       22 </v>
  <v type="int" >       27 </v>
  <v type="int" >        9 </v>
  <v type="int" >        6 </v>
  <v type="int" >       14 </v>
  <v type="int" >       15 </v>
  <v type="int" >        5 </v>
  <v type="int" >       11 </v>
  <v type="int" >       32 </v>
  <v type="int" >       17 </v>
  <v type="int" >       18 </v>
  <v type="int" >       19 </v>
  <v type="int" >       33 </v>
  <v type="int" >       38 </v>
  <v type="int" >       43 </v>
  <v type="int" >       30 </v>
  <v type="int" >       31 </v>
  <v type="int" >       23 </v>
  <v type="int" >       26 </v>
  <v type="int" >        7 </v>
  <v type="int" >       13 </v>
  <v type="int" >       10 </v>
  <v type="int" >       12 </v>
  <v type="int" >       16 </v>
  <v type="int" >        8 </v>
  <v type="int" >       28 </v>
  <v type="int" >       24 </v>
  <v type="int" >       46 </v>
  <v type="int" >       47 </v>
  <v type="int" >       48 </v>
  <v type="int" >        2 </v>
  <v type="int" >        4 </v>
  <v type="int" >        3 </v>
  <v type="int" >       35 </v>
  <v type="int" >       34 </v>
  <v type="int" >       42 </v>
  <v type="int" >       39 </v>
  <v type="int" >       41 </v>
  <v type="int" >       37 </v>
  <v type="int" >       21 </v>
  <v type="int" >       25 </v>
  <v type="int" >       29 </v>
  <v type="int" >       49 </v>
  <v type="int" >       20 </v>
  <v type="int" >       53 </v>
  <v type="int" >       57 </v>
  <v type="int" >       59 </v>
  <v type="int" >       54 </v>
  <v type="int" >       62 </v>
  <v type="int" >       63 </v>
  <v type="int" >       36 </v>
  <v type="int" >       40 </v>
  <v type="int" >       44 </v>
  <v type="int" >       45 </v>
  <v type="int" >       58 </v>
  <v type="int" >       55 </v>
  <v type="int" >       56 </v>
  <v type="int" >       60 </v>
  <v type="int" >       61 </v>
  <v type="int" >       64 </v>
  <v type="int" >       50 </v>
  <v type="int" >       51 </v>
  <v type="int" >       52 </v>
  <v type="int" >       80 </v>
  <v type="int" >       75 </v>
  <v type="int" >       70 </v>
  <v type="int" >       65 </v>
  <v type="int" >       67 </v>
  <v type="int" >       66 </v>
  <v type="int" >       78 </v>
  <v type="int" >       79 </v>
  <v type="int" >       72 </v>
  <v type="int" >       76 </v>
  <v type="int" >       71 </v>
  <v type="int" >       74 </v>
  <v type="int" >       77 </v>
  <v type="int" >       69 </v>
  <v type="int" >       73 </v>
  <v type="int" >       68 </v>
  <v type="int" >       81 </v>
  <v type="int" >       91 </v>
  <v type="int" >       86 </v>
  <v type="int" >       96 </v>
  <v type="int" >       95 </v>
  <v type="int" >       94 </v>
  <v type="int" >       83 </v>
  <v type="int" >       82 </v>
  <v type="int" >       85 </v>
  <v type="int" >       89 </v>
  <v type="int" >       90 </v>
  <v type="int" >       87 </v>
  <v type="int" >       84 </v>
  <v type="int" >       88 </v>
  <v type="int" >       92 </v>
  <v type="int" >       93 </v>
  <v type="int" >      100 </v>
  <v type="int" >      110 </v>
  <v type="int" >      111 </v>
  <v type="int" >      108 </v>
  <v type="int" >      104 </v>
  <v type="int" >      103 </v>
  <v type="int" >      106 </v>
  <v type="int" >      109 </v>
  <v type="int" >      112 </v>
  <v type="int" >      102 </v>
  <v type="int" >      107 </v>
  <v type="int" >      105 </v>
  <v type="int" >      101 </v>
  <v type="int" >       99 </v>
  <v type="int" >       98 </v>
  <v type="int" >       97 </v>
  <v type="int" >      113 </v>
  <v type="int" >      115 </v>
  <v type="int" >      114 </v>
  <v type="int" >      116 </v>
 </varray>
 <kpoints>
  <generation param="Gamma">
   <v type="int" name="divisions">       4        4        1 </v>
   <v name="usershift">      0.00000000       0.00000000       0.00000000 </v>
   <v name="genvec1">      0.25000000      -0.00000000       0.00000000 </v>
   <v name="genvec2">      0.00000000       0.25000000       0.00000000 </v>
   <v name="genvec3">      0.00000000       0.00000000       1.00000000 </v>
   <v name="shift">      0.00000000       0.00000000       0.00000000 </v>
  </generation>
  <varray name="kpointlist" >
   <v>       0.00000000       0.00000000       0.00000000 </v>
   <v>       0.25000000      -0.00000000       0.00000000 </v>
   <v>       0.50000000      -0.00000000       0.00000000 </v>
   <v>       0.00000000       0.25000000       0.00000000 </v>
   <v>       0.25000000       0.25000000       0.00000000 </v>
   <v>       0.50000000       0.25000000       0.00000000 </v>
   <v>      -0.25000000       0.25000000       0.00000000 </v>
   <v>       0.00000000       0.50000000       0.00000000 </v>
   <v>       0.25000000       0.50000000       0.00000000 </v>
   <v>       0.50000000       0.50000000       0.00000000 </v>
  </varray>
  <varray name="weights" >
   <v>       0.06250000 </v>
   <v>       0.12500000 </v>
   <v>       0.06250000 </v>
   <v>       0.12500000 </v>
   <v>       0.12500000 </v>
   <v>       0.12500000 </v>
   <v>       0.12500000 </v>
   <v>       0.06250000 </v>
   <v>       0.12500000 </v>
   <v>       0.06250000 </v>
  </varray>
 </kpoints>
 <parameters>
  <separator name="general" >
   <i type="string" name="SYSTEM">unknown system</i>
   <i type="logical" name="LCOMPAT"> F  </i>
  </separator>
  <separator name="electronic" >
   <i type="string" name="PREC">a</i>
   <i name="ENMAX">    500.00000000</i>
   <i name="ENAUG">    605.39200000</i>
   <i name="EDIFF">      0.00000100</i>
   <i type="int" name="IALGO">    38</i>
   <i type="int" name="IWAVPR">    10</i>
   <i type="int" name="NBANDS">   756</i>
   <i name="NELECT">   1256.00000000</i>
   <i type="int" name="TURBO">     0</i>
   <i type="int" name="IRESTART">     0</i>
   <i type="int" name="NREBOOT">     0</i>
   <i type="int" name="NMIN">     0</i>
   <i name="EREF">      0.00000000</i>
   <separator name="electronic smearing" >
    <i type="int" name="ISMEAR">     0</i>
    <i name="SIGMA">      0.05000000</i>
    <i name="KSPACING">      0.50000000</i>
    <i type="logical" name="KGAMMA"> T  </i>
   </separator>
   <separator name="electronic projectors" >
    <i type="logical" name="LREAL"> F  </i>
    <v name="ROPT">      0.00000000      0.00000000</v>
    <i type="int" name="LMAXPAW">  -100</i>
    <i type="int" name="LMAXMIX">     2</i>
    <i type="logical" name="NLSPLINE"> F  </i>
   </separator>
   <separator name="electronic startup" >
    <i type="int" name="ISTART">     0</i>
    <i type="int" name="ICHARG">     2</i>
    <i type="int" name="INIWAV">     1</i>
   </separator>
   <separator name="electronic spin" >
    <i type="int" name="ISPIN">     1</i>
    <i type="logical" name="LNONCOLLINEAR"> F  </i>
    <v name="MAGMOM">      1.00000000      1.00000000      1.00000000      1.00000000      1.00000000      1.00000000      1.00000000      1.00000000      1.00000000      1.00000000      1.00000000      1.00000000      1.00000000      1.00000000      1.00000000      1.00000000      1.00000000      1.00000000      1.00000000      1.00000000
      1.00000000      1.00000000      1.00000000      1.00000000      1.00000000      1.00000000      1.00000000      1.00000000      1.00000000      1.00000000      1.00000000      1.00000000      1.00000000      1.00000000      1.00000000      1.00000000      1.00000000      1.00000000      1.00000000      1.00000000
      1.00000000      1.00000000      1.00000000      1.00000000      1.00000000      1.00000000      1.00000000      1.00000000      1.00000000      1.00000000      1.00000000      1.00000000      1.00000000      1.00000000      1.00000000      1.00000000      1.00000000      1.00000000      1.00000000      1.00000000
      1.00000000      1.00000000      1.00000000      1.00000000      1.00000000      1.00000000      1.00000000      1.00000000      1.00000000      1.00000000      1.00000000      1.00000000      1.00000000      1.00000000      1.00000000      1.00000000      1.00000000      1.00000000      1.00000000      1.00000000
      1.00000000      1.00000000      1.00000000      1.00000000      1.00000000      1.00000000      1.00000000      1.00000000      1.00000000      1.00000000      1.00000000      1.00000000      1.00000000      1.00000000      1.00000000      1.00000000      1.00000000      1.00000000      1.00000000      1.00000000
      1.00000000      1.00000000      1.00000000      1.00000000      1.00000000      1.00000000      1.00000000      1.00000000      1.00000000      1.00000000      1.00000000      1.00000000      1.00000000      1.00000000      1.00000000      1.00000000</v>
    <i name="NUPDOWN">     -1.00000000</i>
    <i type="logical" name="LSORBIT"> F  </i>
    <v name="SAXIS">      0.00000000      0.00000000      1.00000000</v>
    <i type="logical" name="LSPIRAL"> F  </i>
    <v name="QSPIRAL">      0.00000000      0.00000000      0.00000000</v>
    <i type="logical" name="LZEROZ"> F  </i>
   </separator>
   <separator name="electronic exchange-correlation" >
    <i type="logical" name="LASPH"> F  </i>
    <i type="logical" name="LMETAGGA"> F  </i>
   </separator>
   <separator name="electronic convergence" >
    <i type="int" name="NELM">   300</i>
    <i type="int" name="NELMDL">    -5</i>
    <i type="int" name="NELMIN">     5</i>
    <i name="ENINI">    500.00000000</i>
    <separator name="electronic convergence detail" >
     <i type="logical" name="LDIAG"> T  </i>
     <i type="logical" name="LSUBROT"> F  </i>
     <i name="WEIMIN">      0.00000000</i>
     <i name="EBREAK">      0.00000000</i>
     <i name="DEPER">      0.30000000</i>
     <i type="int" name="NRMM">     4</i>
     <i name="TIME">      0.40000000</i>
    </separator>
   </separator>
   <separator name="electronic mixer" >
    <i name="AMIX">      0.40000000</i>
    <i name="BMIX">      1.00000000</i>
    <i name="AMIN">      0.10000000</i>
    <i name="AMIX_MAG">      1.60000000</i>
    <i name="BMIX_MAG">      1.00000000</i>
    <separator name="electronic mixer details" >
     <i type="int" name="IMIX">     4</i>
     <i type="logical" name="MIXFIRST"> F  </i>
     <i type="int" name="MAXMIX">   -45</i>
     <i name="WC">    100.00000000</i>
     <i type="int" name="INIMIX">     1</i>
     <i type="int" name="MIXPRE">     1</i>
     <i type="int" name="MREMOVE">     5</i>
    </separator>
   </separator>
   <separator name="electronic dipolcorrection" >
    <i type="logical" name="LDIPOL"> F  </i>
    <i type="logical" name="LMONO"> F  </i>
    <i type="int" name="IDIPOL">     0</i>
    <i name="EPSILON">      1.00000000</i>
    <v name="DIPOL">   -100.00000000   -100.00000000   -100.00000000</v>
    <i name="EFIELD">      0.00000000</i>
   </separator>
  </separator>
  <separator name="grids" >
   <i type="int" name="NGX">    80</i>
   <i type="int" name="NGY">    80</i>
   <i type="int" name="NGZ">   210</i>
   <i type="int" name="NGXF">   160</i>
   <i type="int" name="NGYF">   160</i>
   <i type="int" name="NGZF">   420</i>
   <i type="logical" name="ADDGRID"> T  </i>
  </separator>
  <separator name="ionic" >
   <i type="int" name="NSW">     0</i>
   <i type="int" name="IBRION">    -1</i>
   <i type="int" name="MDALGO">     0</i>
   <i type="int" name="ISIF">     2</i>
   <i name="PSTRESS">      0.00000000</i>
   <i name="EDIFFG">      0.00001000</i>
   <i type="int" name="NFREE">     0</i>
   <i name="POTIM">      0.50000000</i>
   <i name="SMASS">     -3.00000000</i>
   <i name="SCALEE">      1.00000000</i>
  </separator>
  <separator name="ionic md" >
   <i name="TEBEG">      0.00010000</i>
   <i name="TEEND">      0.00010000</i>
   <i type="int" name="NBLOCK">     1</i>
   <i type="int" name="KBLOCK">     1</i>
   <i type="int" name="NPACO">   256</i>
   <i name="APACO">     16.00000000</i>
  </separator>
  <separator name="symmetry" >
   <i type="int" name="ISYM">     2</i>
   <i name="SYMPREC">      0.00001000</i>
  </separator>
  <separator name="dos" >
   <i type="int" name="LORBIT">     0</i>
   <v name="RWIGS">     -1.00000000     -1.00000000</v>
   <i type="int" name="NEDOS">   301</i>
   <i name="EMIN">     10.00000000</i>
   <i name="EMAX">    -10.00000000</i>
   <i name="EFERMI">      0.00000000</i>
  </separator>
  <separator name="writing" >
   <i type="int" name="NWRITE">     2</i>
   <i type="logical" name="LWAVE"> F  </i>
   <i type="logical" name="LDOWNSAMPLE"> F  </i>
   <i type="logical" name="LCHARG"> F  </i>
   <i type="logical" name="LPARD"> F  </i>
   <i type="logical" name="LVTOT"> F  </i>
   <i type="logical" name="LVHAR"> F  </i>
   <i type="logical" name="LELF"> F  </i>
   <i type="logical" name="LOPTICS"> F  </i>
   <v name="STM">      0.00000000      0.00000000      0.00000000      0.00000000      0.00000000      0.00000000      0.00000000</v>
  </separator>
  <separator name="performance" >
   <i type="int" name="NPAR">     4</i>
   <i type="int" name="NSIM">     4</i>
   <i type="int" name="NBLK">    -1</i>
   <i type="logical" name="LPLANE"> T  </i>
   <i type="logical" name="LSCALAPACK"> F  </i>
   <i type="logical" name="LSCAAWARE"> F  </i>
   <i type="logical" name="LSCALU"> F  </i>
   <i type="logical" name="LASYNC"> F  </i>
   <i type="logical" name="LORBITALREAL"> F  </i>
  </separator>
  <separator name="miscellaneous" >
   <i type="int" name="IDIOT">     3</i>
   <i type="int" name="ISPECIAL">     0</i>
   <i type="logical" name="LMUSIC"> F  </i>
   <v name="POMASS">     63.54600000     16.00000000</v>
   <v name="DARWINR">      0.00000000      0.00000000</v>
   <v name="DARWINV">      1.00000000      1.00000000</v>
   <i type="logical" name="LCORR"> T  </i>
  </separator>
  <i type="logical" name="GGA_COMPAT"> T  </i>
  <i type="logical" name="LBERRY"> F  </i>
  <i type="int" name="ICORELEVEL">     0</i>
  <i type="logical" name="LDAU"> F  </i>
  <i type="int" name="I_CONSTRAINED_M">     0</i>
  <separator name="electronic exchange-correlation" >
   <i type="string" name="GGA">--</i>
   <i type="int" name="VOSKOWN">     0</i>
   <i type="logical" name="LHFCALC"> F  </i>
   <i type="string" name="PRECFOCK"></i>
   <i type="logical" name="LSYMGRAD"> F  </i>
   <i type="logical" name="LHFONE"> F  </i>
   <i type="logical" name="LRHFCALC"> F  </i>
   <i type="logical" name="LTHOMAS"> F  </i>
   <i type="logical" name="LMODELHF"> F  </i>
   <i name="ENCUT4O">     -1.00000000</i>
   <i type="int" name="EXXOEP">     0</i>
   <i type="int" name="FOURORBIT">     0</i>
   <i name="AEXX">      0.00000000</i>
   <i name="HFALPHA">      0.00000000</i>
   <i name="MCALPHA">      0.00000000</i>
   <i name="ALDAX">      1.00000000</i>
   <i name="AGGAX">      1.00000000</i>
   <i name="ALDAC">      1.00000000</i>
   <i name="AGGAC">      1.00000000</i>
   <i type="int" name="NKREDX">     1</i>
   <i type="int" name="NKREDY">     1</i>
   <i type="int" name="NKREDZ">     1</i>
   <i type="logical" name="SHIFTRED"> F  </i>
   <i type="logical" name="ODDONLY"> F  </i>
   <i type="logical" name="EVENONLY"> F  </i>
   <i type="int" name="LMAXFOCK">     0</i>
   <i type="int" name="NMAXFOCKAE">     0</i>
   <i type="logical" name="LFOCKAEDFT"> F  </i>
   <i name="HFSCREEN">      0.00000000</i>
   <i name="HFSCREENC">      0.00000000</i>
   <i type="int" name="NBANDSGWLOW">     0</i>
  </separator>
  <separator name="vdW DFT" >
   <i type="logical" name="LUSE_VDW"> F  </i>
   <i name="Zab_VDW">     -0.84910000</i>
   <i name="PARAM1">      0.12340000</i>
   <i name="PARAM2">      1.00000000</i>
   <i name="PARAM3">      0.00000000</i>
  </separator>
  <separator name="model GW" >
   <i type="int" name="MODEL_GW">     0</i>
   <i name="MODEL_EPS0">     13.16858037</i>
   <i name="MODEL_ALPHA">      1.00000000</i>
  </separator>
  <separator name="linear response parameters" >
   <i type="logical" name="LEPSILON"> F  </i>
   <i type="logical" name="LRPA"> F  </i>
   <i type="logical" name="LNABLA"> F  </i>
   <i type="logical" name="LVEL"> F  </i>
   <i type="int" name="KINTER">     0</i>
   <i name="CSHIFT">      0.10000000</i>
   <i name="OMEGAMAX">     -1.00000000</i>
   <i name="DEG_THRESHOLD">      0.00200000</i>
   <i name="RTIME">     -0.10000000</i>
   <i name="WPLASMAI">      0.00000000</i>
   <v name="DFIELD">      0.00000000      0.00000000      0.00000000</v>
   <v name="WPLASMA">      0.00000000      0.00000000      0.00000000      0.00000000      0.00000000      0.00000000      0.00000000      0.00000000      0.00000000</v>
  </separator>
  <separator name="orbital magnetization" >
   <i type="logical" name="NUCIND"> F  </i>
   <v name="MAGPOS">      0.00000000      0.00000000      0.00000000</v>
   <i type="logical" name="LNICSALL"> T  </i>
   <i type="logical" name="ORBITALMAG"> F  </i>
   <i type="logical" name="LMAGBLOCH"> F  </i>
   <i type="logical" name="LCHIMAG"> F  </i>
   <i type="logical" name="LGAUGE"> T  </i>
   <i type="int" name="MAGATOM">     0</i>
   <v name="MAGDIPOL">      0.00000000      0.00000000      0.00000000</v>
   <v name="AVECCONST">      0.00000000      0.00000000      0.00000000</v>
  </separator>
  <separator name="response functions" >
   <i type="logical" name="LADDER"> F  </i>
   <i type="logical" name="LRPAFORCE"> F  </i>
   <i type="logical" name="LFXC"> F  </i>
   <i type="logical" name="LHARTREE"> T  </i>
   <i type="int" name="IBSE">     0</i>
   <v type="int" name="KPOINT">    -1     0     0     0</v>
   <i type="logical" name="LTCTE"> F  </i>
   <i type="logical" name="LTETE"> F  </i>
   <i type="logical" name="LTRIPLET"> F  </i>
   <i type="logical" name="LFXCEPS"> F  </i>
   <i type="logical" name="LFXHEG"> F  </i>
   <i type="int" name="NATURALO">     2</i>
   <i type="logical" name="L2ORDER"> F  </i>
   <i type="logical" name="LMP2LT"> F  </i>
   <i type="logical" name="LUSEW"> F  </i>
   <i name="ENCUTGW">     -2.00000000</i>
   <i name="ENCUTGWSOFT">     -2.00000000</i>
   <i name="ENCUTLF">     -1.00000000</i>
   <i type="int" name="LMAXMP2">    -1</i>
   <i name="SCISSOR">      0.00000000</i>
   <i type="int" name="NOMEGA">     0</i>
   <i type="int" name="NOMEGAR">     0</i>
   <i type="int" name="NBANDSGW">    -1</i>
   <i type="int" name="NBANDSO">    -1</i>
   <i type="int" name="NBANDSV">    -1</i>
   <i type="int" name="NELM">   300</i>
   <i type="int" name="NELMHF">     1</i>
   <i type="int" name="DIM">     3</i>
   <i type="int" name="ANTIRES">     0</i>
   <i name="OMEGAMAX">    -30.00000000</i>
   <i name="OMEGAMIN">    -30.00000000</i>
   <i name="OMEGATL">   -200.00000000</i>
   <i type="int" name="OMEGAGRID">   140</i>
   <i name="CSHIFT">     -0.10000000</i>
   <i type="logical" name="SELFENERGY"> F  </i>
   <i type="logical" name="LSPECTRAL"> F  </i>
   <i type="logical" name="LSPECTRALGW"> F  </i>
   <i type="logical" name="LSINGLES"> F  </i>
   <i type="logical" name="LFERMIGW"> F  </i>
   <i type="logical" name="ODDONLYGW"> F  </i>
   <i type="logical" name="EVENONLYGW"> F  </i>
   <i type="int" name="NKREDLFX">     1</i>
   <i type="int" name="NKREDLFY">     1</i>
   <i type="int" name="NKREDLFZ">     1</i>
   <i type="int" name="MAXMEM">  2800</i>
   <i type="int" name="TELESCOPE">     0</i>
   <i type="int" name="TAUPAR">     1</i>
   <i type="int" name="OMEGAPAR">    -1</i>
   <i name="LAMBDA">      1.00000000</i>
  </separator>
  <separator name="External order field" >
   <i name="OFIELD_KAPPA">      0.00000000</i>
   <v name="OFIELD_K">      0.00000000      0.00000000      0.00000000</v>
   <i name="OFIELD_Q6_NEAR">      0.00000000</i>
   <i name="OFIELD_Q6_FAR">      0.00000000</i>
   <i name="OFIELD_A">      0.00000000</i>
  </separator>
 </parameters>
 <atominfo>
  <atoms>     116 </atoms>
  <types>       2 </types>
  <array name="atoms" >
   <dimension dim="1">ion</dimension>
   <field type="string">element</field>
   <field type="int">atomtype</field>
   <set>
    <rc><c>Cu</c><c>   1</c></rc>
    <rc><c>Cu</c><c>   1</c></rc>
    <rc><c>Cu</c><c>   1</c></rc>
    <rc><c>Cu</c><c>   1</c></rc>
    <rc><c>Cu</c><c>   1</c></rc>
    <rc><c>Cu</c><c>   1</c></rc>
    <rc><c>Cu</c><c>   1</c></rc>
    <rc><c>Cu</c><c>   1</c></rc>
    <rc><c>Cu</c><c>   1</c></rc>
    <rc><c>Cu</c><c>   1</c></rc>
    <rc><c>Cu</c><c>   1</c></rc>
    <rc><c>Cu</c><c>   1</c></rc>
    <rc><c>Cu</c><c>   1</c></rc>
    <rc><c>Cu</c><c>   1</c></rc>
    <rc><c>Cu</c><c>   1</c></rc>
    <rc><c>Cu</c><c>   1</c></rc>
    <rc><c>Cu</c><c>   1</c></rc>
    <rc><c>Cu</c><c>   1</c></rc>
    <rc><c>Cu</c><c>   1</c></rc>
    <rc><c>Cu</c><c>   1</c></rc>
    <rc><c>Cu</c><c>   1</c></rc>
    <rc><c>Cu</c><c>   1</c></rc>
    <rc><c>Cu</c><c>   1</c></rc>
    <rc><c>Cu</c><c>   1</c></rc>
    <rc><c>Cu</c><c>   1</c></rc>
    <rc><c>Cu</c><c>   1</c></rc>
    <rc><c>Cu</c><c>   1</c></rc>
    <rc><c>Cu</c><c>   1</c></rc>
    <rc><c>Cu</c><c>   1</c></rc>
    <rc><c>Cu</c><c>   1</c></rc>
    <rc><c>Cu</c><c>   1</c></rc>
    <rc><c>Cu</c><c>   1</c></rc>
    <rc><c>Cu</c><c>   1</c></rc>
    <rc><c>Cu</c><c>   1</c></rc>
    <rc><c>Cu</c><c>   1</c></rc>
    <rc><c>Cu</c><c>   1</c></rc>
    <rc><c>Cu</c><c>   1</c></rc>
    <rc><c>Cu</c><c>   1</c></rc>
    <rc><c>Cu</c><c>   1</c></rc>
    <rc><c>Cu</c><c>   1</c></rc>
    <rc><c>Cu</c><c>   1</c></rc>
    <rc><c>Cu</c><c>   1</c></rc>
    <rc><c>Cu</c><c>   1</c></rc>
    <rc><c>Cu</c><c>   1</c></rc>
    <rc><c>Cu</c><c>   1</c></rc>
    <rc><c>Cu</c><c>   1</c></rc>
    <rc><c>Cu</c><c>   1</c></rc>
    <rc><c>Cu</c><c>   1</c></rc>
    <rc><c>Cu</c><c>   1</c></rc>
    <rc><c>Cu</c><c>   1</c></rc>
    <rc><c>Cu</c><c>   1</c></rc>
    <rc><c>Cu</c><c>   1</c></rc>
    <rc><c>Cu</c><c>   1</c></rc>
    <rc><c>Cu</c><c>   1</c></rc>
    <rc><c>Cu</c><c>   1</c></rc>
    <rc><c>Cu</c><c>   1</c></rc>
    <rc><c>Cu</c><c>   1</c></rc>
    <rc><c>Cu</c><c>   1</c></rc>
    <rc><c>Cu</c><c>   1</c></rc>
    <rc><c>Cu</c><c>   1</c></rc>
    <rc><c>Cu</c><c>   1</c></rc>
    <rc><c>Cu</c><c>   1</c></rc>
    <rc><c>Cu</c><c>   1</c></rc>
    <rc><c>Cu</c><c>   1</c></rc>
    <rc><c>Cu</c><c>   1</c></rc>
    <rc><c>Cu</c><c>   1</c></rc>
    <rc><c>Cu</c><c>   1</c></rc>
    <rc><c>Cu</c><c>   1</c></rc>
    <rc><c>Cu</c><c>   1</c></rc>
    <rc><c>Cu</c><c>   1</c></rc>
    <rc><c>Cu</c><c>   1</c></rc>
    <rc><c>Cu</c><c>   1</c></rc>
    <rc><c>Cu</c><c>   1</c></rc>
    <rc><c>Cu</c><c>   1</c></rc>
    <rc><c>Cu</c><c>   1</c></rc>
    <rc><c>Cu</c><c>   1</c></rc>
    <rc><c>Cu</c><c>   1</c></rc>
    <rc><c>Cu</c><c>   1</c></rc>
    <rc><c>Cu</c><c>   1</c></rc>
    <rc><c>Cu</c><c>   1</c></rc>
    <rc><c>Cu</c><c>   1</c></rc>
    <rc><c>Cu</c><c>   1</c></rc>
    <rc><c>Cu</c><c>   1</c></rc>
    <rc><c>Cu</c><c>   1</c></rc>
    <rc><c>Cu</c><c>   1</c></rc>
    <rc><c>Cu</c><c>   1</c></rc>
    <rc><c>Cu</c><c>   1</c></rc>
    <rc><c>Cu</c><c>   1</c></rc>
    <rc><c>Cu</c><c>   1</c></rc>
    <rc><c>Cu</c><c>   1</c></rc>
    <rc><c>Cu</c><c>   1</c></rc>
    <rc><c>Cu</c><c>   1</c></rc>
    <rc><c>Cu</c><c>   1</c></rc>
    <rc><c>Cu</c><c>   1</c></rc>
    <rc><c>Cu</c><c>   1</c></rc>
    <rc><c>Cu</c><c>   1</c></rc>
    <rc><c>Cu</c><c>   1</c></rc>
    <rc><c>Cu</c><c>   1</c></rc>
    <rc><c>Cu</c><c>   1</c></rc>
    <rc><c>Cu</c><c>   1</c></rc>
    <rc><c>Cu</c><c>   1</c></rc>
    <rc><c>Cu</c><c>   1</c></rc>
    <rc><c>Cu</c><c>   1</c></rc>
    <rc><c>Cu</c><c>   1</c></rc>
    <rc><c>Cu</c><c>   1</c></rc>
    <rc><c>Cu</c><c>   1</c></rc>
    <rc><c>Cu</c><c>   1</c></rc>
    <rc><c>Cu</c><c>   1</c></rc>
    <rc><c>Cu</c><c>   1</c></rc>
    <rc><c>Cu</c><c>   1</c></rc>
    <rc><c>Cu</c><c>   1</c></rc>
    <rc><c>Cu</c><c>   1</c></rc>
    <rc><c>O </c><c>   2</c></rc>
    <rc><c>O </c><c>   2</c></rc>
    <rc><c>O </c><c>   2</c></rc>
    <rc><c>O </c><c>   2</c></rc>
   </set>
  </array>
  <array name="atomtypes" >
   <dimension dim="1">type</dimension>
   <field type="int">atomspertype</field>
   <field type="string">element</field>
   <field>mass</field>
   <field>valence</field>
   <field type="string">pseudopotential</field>
   <set>
    <rc><c> 112</c><c>Cu</c><c>     63.54600000</c><c>     11.00000000</c><c> PAW_PBE Cu 05Jan2001                   </c></rc>
    <rc><c>   4</c><c>O </c><c>     16.00000000</c><c>      6.00000000</c><c> PAW_PBE O 08Apr2002                    </c></rc>
   </set>
  </array>
 </atominfo>
 <structure name="initialpos" >
  <crystal>
   <varray name="basis" >
    <v>      10.28518105       0.00000000       0.00000000 </v>
    <v>       5.14259052       8.90722807       0.00000000 </v>
    <v>       0.00000000       0.00000000      27.79016876 </v>
   </varray>
   <i name="volume">   2545.92553775 </i>
   <varray name="rec_basis" >
    <v>       0.09722726      -0.05613419       0.00000000 </v>
    <v>       0.00000000       0.11226837       0.00000000 </v>
    <v>       0.00000000       0.00000000       0.03598395 </v>
   </varray>
  </crystal>
  <varray name="positions" >
   <v>       0.00000000       0.00000000       0.22663990 </v>
   <v>       0.00000000       0.50000000       0.22663990 </v>
   <v>       0.50000000       0.00000000       0.22663990 </v>
   <v>       0.50000000       0.50000000       0.22663990 </v>
   <v>       0.00000000       0.25000000       0.22663990 </v>
   <v>       0.00000000       0.75000000       0.22663990 </v>
   <v>       0.50000000       0.25000000       0.22663990 </v>
   <v>       0.50000000       0.75000000       0.22663990 </v>
   <v>       0.25000000       0.00000000       0.22663990 </v>
   <v>       0.25000000       0.50000000       0.22663990 </v>
   <v>       0.75000000       0.00000000       0.22663990 </v>
   <v>       0.75000000       0.50000000       0.22663990 </v>
   <v>       0.25000000       0.25000000       0.22663990 </v>
   <v>       0.25000000       0.75000000       0.22663990 </v>
   <v>       0.75000000       0.25000000       0.22663990 </v>
   <v>       0.75000000       0.75000000       0.22663990 </v>
   <v>       0.16666666       0.16666666       0.30218653 </v>
   <v>       0.16666666       0.66666666       0.30218653 </v>
   <v>       0.66666666       0.16666666       0.30218653 </v>
   <v>       0.66666666       0.66666666       0.30218653 </v>
   <v>       0.16666666       0.41666666       0.30218653 </v>
   <v>       0.16666666       0.91666666       0.30218653 </v>
   <v>       0.66666666       0.41666666       0.30218653 </v>
   <v>       0.66666666       0.91666666       0.30218653 </v>
   <v>       0.41666666       0.16666666       0.30218653 </v>
   <v>       0.41666666       0.66666666       0.30218653 </v>
   <v>       0.91666666       0.16666666       0.30218653 </v>
   <v>       0.91666666       0.66666666       0.30218653 </v>
   <v>       0.41666666       0.41666666       0.30218653 </v>
   <v>       0.41666666       0.91666666       0.30218653 </v>
   <v>       0.91666666       0.41666666       0.30218653 </v>
   <v>       0.91666666       0.91666666       0.30218653 </v>
   <v>       0.08333333       0.08333333       0.37716320 </v>
   <v>       0.08333333       0.58333333       0.37716320 </v>
   <v>       0.58333333       0.08333333       0.37716320 </v>
   <v>       0.58333333       0.58333333       0.37716320 </v>
   <v>       0.08351614       0.33324190       0.37729758 </v>
   <v>       0.08351614       0.83324190       0.37729758 </v>
   <v>       0.58351614       0.33324190       0.37729758 </v>
   <v>       0.58351614       0.83324190       0.37729758 </v>
   <v>       0.33324190       0.08351614       0.37729758 </v>
   <v>       0.33324190       0.58351614       0.37729758 </v>
   <v>       0.83324190       0.08351614       0.37729758 </v>
   <v>       0.83324190       0.58351614       0.37729758 </v>
   <v>       0.33324190       0.33324190       0.37729758 </v>
   <v>       0.33324190       0.83324190       0.37729758 </v>
   <v>       0.83324190       0.33324190       0.37729758 </v>
   <v>       0.83324190       0.83324190       0.37729758 </v>
   <v>       0.00012997       0.00012997       0.45242342 </v>
   <v>       0.00012997       0.50012997       0.45242342 </v>
   <v>       0.50012997       0.00012997       0.45242342 </v>
   <v>       0.50012997       0.50012997       0.45242342 </v>
   <v>       0.00012997       0.24974005       0.45242342 </v>
   <v>       0.00012997       0.74974005       0.45242342 </v>
   <v>       0.50012997       0.24974005       0.45242342 </v>
   <v>       0.50012997       0.74974005       0.45242342 </v>
   <v>       0.24974005       0.00012997       0.45242342 </v>
   <v>       0.24974005       0.50012997       0.45242342 </v>
   <v>       0.74974005       0.00012997       0.45242342 </v>
   <v>       0.74974005       0.50012997       0.45242342 </v>
   <v>       0.25000000       0.25000000       0.45288750 </v>
   <v>       0.25000000       0.75000000       0.45288750 </v>
   <v>       0.75000000       0.25000000       0.45288750 </v>
   <v>       0.75000000       0.75000000       0.45288750 </v>
   <v>       0.16660598       0.16660598       0.52813907 </v>
   <v>       0.16660598       0.66660598       0.52813907 </v>
   <v>       0.66660598       0.16660598       0.52813907 </v>
   <v>       0.66660598       0.66660598       0.52813907 </v>
   <v>       0.16660598       0.41678801       0.52813907 </v>
   <v>       0.16660598       0.91678801       0.52813907 </v>
   <v>       0.66660598       0.41678801       0.52813907 </v>
   <v>       0.66660598       0.91678801       0.52813907 </v>
   <v>       0.41678801       0.16660598       0.52813907 </v>
   <v>       0.41678801       0.66660598       0.52813907 </v>
   <v>       0.91678801       0.16660598       0.52813907 </v>
   <v>       0.91678801       0.66660598       0.52813907 </v>
   <v>       0.41804166       0.41666666       0.52792828 </v>
   <v>       0.41666666       0.91666666       0.52741939 </v>
   <v>       0.91666666       0.41666666       0.52741939 </v>
   <v>       0.91666666       0.91666666       0.52741939 </v>
   <v>       0.08333333       0.08333333       0.60253339 </v>
   <v>       0.08333333       0.58333333       0.60253339 </v>
   <v>       0.58333333       0.08333333       0.60253339 </v>
   <v>       0.58333333       0.58333333       0.60253339 </v>
   <v>       0.08130935       0.33434529       0.60320464 </v>
   <v>       0.08130935       0.83434529       0.60320464 </v>
   <v>       0.58130935       0.33434529       0.60320464 </v>
   <v>       0.58130935       0.83434529       0.60320464 </v>
   <v>       0.33434529       0.08130935       0.60320464 </v>
   <v>       0.33434529       0.58130935       0.60320464 </v>
   <v>       0.83434529       0.08130935       0.60320464 </v>
   <v>       0.83434529       0.58130935       0.60320464 </v>
   <v>       0.33434529       0.33434529       0.60320464 </v>
   <v>       0.33434529       0.83434529       0.60320464 </v>
   <v>       0.83434529       0.33434529       0.60320464 </v>
   <v>       0.83434529       0.83434529       0.60320464 </v>
   <v>       0.49714648       0.49714648       0.68057248 </v>
   <v>       0.49714648       0.99714648       0.68057248 </v>
   <v>       0.99714648       0.49714648       0.68057248 </v>
   <v>       0.99714648       0.99714648       0.68057248 </v>
   <v>       0.49714648       0.25570704       0.68057248 </v>
   <v>       0.49714648       0.75570704       0.68057248 </v>
   <v>       0.99714648       0.25570704       0.68057248 </v>
   <v>       0.99714648       0.75570704       0.68057248 </v>
   <v>       0.25570704       0.49714648       0.68057248 </v>
   <v>       0.25570704       0.99714648       0.68057248 </v>
   <v>       0.75570704       0.49714648       0.68057248 </v>
   <v>       0.75570704       0.99714648       0.68057248 </v>
   <v>       0.25000000       0.25000000       0.67480871 </v>
   <v>       0.25000000       0.75000000       0.67480871 </v>
   <v>       0.75000000       0.25000000       0.67480871 </v>
   <v>       0.75000000       0.75000000       0.67480871 </v>
   <v>       0.08333333       0.08333333       0.72043888 </v>
   <v>       0.08333333       0.58333333       0.72043888 </v>
   <v>       0.58333333       0.08333333       0.72043888 </v>
   <v>       0.58333333       0.58333333       0.72043888 </v>
  </varray>
 </structure>
 <calculation>
  <scstep>
   <time name="dav">  163.95  164.05</time>
   <time name="total">  164.54  164.65</time>
   <energy>
    <i name="alphaZ">   6463.29446255 </i>
    <i name="ewald"> 664560.46727393 </i>
    <i name="hartreedc">-815315.35378023 </i>
    <i name="XCdc">   5009.43459985 </i>
    <i name="pawpsdc"> 122173.85035501 </i>
    <i name="pawaedc">-138312.01710912 </i>
    <i name="eentropy">     -0.02742029 </i>
    <i name="bandstr">   8852.82019150 </i>
    <i name="atom"> 157518.83071590 </i>
    <i name="e_fr_energy">  10951.29928912 </i>
    <i name="e_wo_entrp">  10951.32670940 </i>
    <i name="e_0_energy">  10951.31299926 </i>
   </energy>
  </scstep>
  <scstep>
   <time name="dav">  157.13  157.20</time>
   <time name="total">  157.16  157.23</time>
   <energy>
    <i name="e_fr_energy">   1074.03816578 </i>
    <i name="e_wo_entrp">   1074.08238736 </i>
    <i name="e_0_energy">   1074.06027657 </i>
   </energy>
  </scstep>
  <scstep>
   <time name="dav">  162.71  162.78</time>
   <time name="total">  162.73  162.81</time>
   <energy>
    <i name="e_fr_energy">   -373.62777861 </i>
    <i name="e_wo_entrp">   -373.56222692 </i>
    <i name="e_0_energy">   -373.59500276 </i>
   </energy>
  </scstep>
  <scstep>
   <time name="dav">  177.74  177.81</time>
   <time name="total">  177.77  177.83</time>
   <energy>
    <i name="e_fr_energy">   -524.81670159 </i>
    <i name="e_wo_entrp">   -524.75327859 </i>
    <i name="e_0_energy">   -524.78499009 </i>
   </energy>
  </scstep>
  <scstep>
   <time name="dav">  167.29  167.54</time>
   <time name="total">  171.89  172.14</time>
   <energy>
    <i name="e_fr_energy">   -530.86726346 </i>
    <i name="e_wo_entrp">   -530.80386264 </i>
    <i name="e_0_energy">   -530.83556305 </i>
   </energy>
  </scstep>
  <scstep>
   <time name="dav">  173.21  173.24</time>
   <time name="total">  180.02  180.09</time>
   <energy>
    <i name="e_fr_energy">   -478.07756279 </i>
    <i name="e_wo_entrp">   -478.02115390 </i>
    <i name="e_0_energy">   -478.04935835 </i>
   </energy>
  </scstep>
  <scstep>
   <time name="dav">  179.00  179.04</time>
   <time name="total">  184.83  184.91</time>
   <energy>
    <i name="e_fr_energy">   -511.51604619 </i>
    <i name="e_wo_entrp">   -511.39357661 </i>
    <i name="e_0_energy">   -511.45481140 </i>
   </energy>
  </scstep>
  <scstep>
   <time name="dav">  197.07  197.12</time>
   <time name="total">  202.09  202.16</time>
   <energy>
    <i name="e_fr_energy">   -444.91147154 </i>
    <i name="e_wo_entrp">   -444.82779891 </i>
    <i name="e_0_energy">   -444.86963523 </i>
   </energy>
  </scstep>
  <scstep>
   <time name="dav">  194.43  194.47</time>
   <time name="total">  199.42  199.50</time>
   <energy>
    <i name="e_fr_energy">   -428.53783923 </i>
    <i name="e_wo_entrp">   -428.49882114 </i>
    <i name="e_0_energy">   -428.51833019 </i>
   </energy>
  </scstep>
  <scstep>
   <time name="dav">  222.40  222.46</time>
   <time name="total">  227.39  227.47</time>
   <energy>
    <i name="e_fr_energy">   -429.30451450 </i>
    <i name="e_wo_entrp">   -429.25120854 </i>
    <i name="e_0_energy">   -429.27786152 </i>
   </energy>
  </scstep>
  <scstep>
   <time name="dav">  178.94  179.02</time>
   <time name="total">  183.93  184.05</time>
   <energy>
    <i name="e_fr_energy">   -427.93407961 </i>
    <i name="e_wo_entrp">   -427.86758732 </i>
    <i name="e_0_energy">   -427.90083347 </i>
   </energy>
  </scstep>
  <scstep>
   <time name="dav">  190.93  190.98</time>
   <time name="total">  197.59  197.67</time>
   <energy>
    <i name="e_fr_energy">   -427.70080985 </i>
    <i name="e_wo_entrp">   -427.64591608 </i>
    <i name="e_0_energy">   -427.67336296 </i>
   </energy>
  </scstep>
  <scstep>
   <time name="dav">  215.05  216.48</time>
   <time name="total">  220.97  265.85</time>
   <energy>
    <i name="e_fr_energy">   -427.64613464 </i>
    <i name="e_wo_entrp">   -427.59145087 </i>
    <i name="e_0_energy">   -427.61879276 </i>
   </energy>
  </scstep>
  <scstep>
   <time name="dav">  173.29  173.33</time>
   <time name="total">  179.00  179.78</time>
   <energy>
    <i name="e_fr_energy">   -427.54150973 </i>
    <i name="e_wo_entrp">   -427.49236255 </i>
    <i name="e_0_energy">   -427.51693614 </i>
   </energy>
  </scstep>
  <scstep>
   <time name="dav">  164.98  165.03</time>
   <time name="total">  169.96  170.01</time>
   <energy>
    <i name="e_fr_energy">   -427.61227201 </i>
    <i name="e_wo_entrp">   -427.56391581 </i>
    <i name="e_0_energy">   -427.58809391 </i>
   </energy>
  </scstep>
  <scstep>
   <time name="dav">  164.42  164.50</time>
   <time name="total">  169.43  169.52</time>
   <energy>
    <i name="e_fr_energy">   -427.51301841 </i>
    <i name="e_wo_entrp">   -427.46350241 </i>
    <i name="e_0_energy">   -427.48826041 </i>
   </energy>
  </scstep>
  <scstep>
   <time name="dav">  169.04  169.10</time>
   <time name="total">  174.05  174.10</time>
   <energy>
    <i name="e_fr_energy">   -427.47909608 </i>
    <i name="e_wo_entrp">   -427.42799871 </i>
    <i name="e_0_energy">   -427.45354739 </i>
   </energy>
  </scstep>
  <scstep>
   <time name="dav">  190.55  190.61</time>
   <time name="total">  195.56  195.62</time>
   <energy>
    <i name="e_fr_energy">   -427.46509068 </i>
    <i name="e_wo_entrp">   -427.41264862 </i>
    <i name="e_0_energy">   -427.43886965 </i>
   </energy>
  </scstep>
  <scstep>
   <time name="dav">  173.38  173.55</time>
   <time name="total">  178.37  178.54</time>
   <energy>
    <i name="e_fr_energy">   -427.46497867 </i>
    <i name="e_wo_entrp">   -427.41197773 </i>
    <i name="e_0_energy">   -427.43847820 </i>
   </energy>
  </scstep>
  <scstep>
   <time name="dav">  160.90  160.94</time>
   <time name="total">  165.92  165.97</time>
   <energy>
    <i name="e_fr_energy">   -427.46544694 </i>
    <i name="e_wo_entrp">   -427.41225089 </i>
    <i name="e_0_energy">   -427.43884892 </i>
   </energy>
  </scstep>
  <scstep>
   <time name="dav">  160.64  160.68</time>
   <time name="total">  165.62  165.67</time>
   <energy>
    <i name="e_fr_energy">   -427.46589379 </i>
    <i name="e_wo_entrp">   -427.41239969 </i>
    <i name="e_0_energy">   -427.43914674 </i>
   </energy>
  </scstep>
  <scstep>
   <time name="dav">  160.74  160.78</time>
   <time name="total">  165.72  165.77</time>
   <energy>
    <i name="e_fr_energy">   -427.46590649 </i>
    <i name="e_wo_entrp">   -427.41268210 </i>
    <i name="e_0_energy">   -427.43929429 </i>
   </energy>
  </scstep>
  <scstep>
   <time name="dav">  164.92  165.18</time>
   <time name="total">  171.88  172.14</time>
   <energy>
    <i name="e_fr_energy">   -427.46595248 </i>
    <i name="e_wo_entrp">   -427.41273690 </i>
    <i name="e_0_energy">   -427.43934469 </i>
   </energy>
  </scstep>
  <scstep>
   <time name="dav">  159.41  159.46</time>
   <time name="total">  164.40  164.45</time>
   <energy>
    <i name="e_fr_energy">   -427.46608455 </i>
    <i name="e_wo_entrp">   -427.41287141 </i>
    <i name="e_0_energy">   -427.43947798 </i>
   </energy>
  </scstep>
  <scstep>
   <time name="dav">  175.44  175.50</time>
   <time name="total">  181.17  181.23</time>
   <energy>
    <i name="e_fr_energy">   -427.46623850 </i>
    <i name="e_wo_entrp">   -427.41305889 </i>
    <i name="e_0_energy">   -427.43964869 </i>
   </energy>
  </scstep>
  <scstep>
   <time name="dav">  171.08  171.16</time>
   <time name="total">  176.08  176.16</time>
   <energy>
    <i name="e_fr_energy">   -427.46647304 </i>
    <i name="e_wo_entrp">   -427.41329296 </i>
    <i name="e_0_energy">   -427.43988300 </i>
   </energy>
  </scstep>
  <scstep>
   <time name="dav">  154.75  154.80</time>
   <time name="total">  162.16  162.21</time>
   <energy>
    <i name="e_fr_energy">   -427.46672489 </i>
    <i name="e_wo_entrp">   -427.41354812 </i>
    <i name="e_0_energy">   -427.44013650 </i>
   </energy>
  </scstep>
  <scstep>
   <time name="dav">  159.21  159.27</time>
   <time name="total">  165.67  165.73</time>
   <energy>
    <i name="e_fr_energy">   -427.46688650 </i>
    <i name="e_wo_entrp">   -427.41372393 </i>
    <i name="e_0_energy">   -427.44030521 </i>
   </energy>
  </scstep>
  <scstep>
   <time name="dav">  157.92  158.05</time>
   <time name="total">  162.92  163.06</time>
   <energy>
    <i name="e_fr_energy">   -427.46704925 </i>
    <i name="e_wo_entrp">   -427.41390087 </i>
    <i name="e_0_energy">   -427.44047506 </i>
   </energy>
  </scstep>
  <scstep>
   <time name="dav">  157.37  157.44</time>
   <time name="total">  162.38  162.44</time>
   <energy>
    <i name="e_fr_energy">   -427.46714971 </i>
    <i name="e_wo_entrp">   -427.41400005 </i>
    <i name="e_0_energy">   -427.44057488 </i>
   </energy>
  </scstep>
  <scstep>
   <time name="dav">  156.29  156.32</time>
   <time name="total">  161.30  161.33</time>
   <energy>
    <i name="e_fr_energy">   -427.46726209 </i>
    <i name="e_wo_entrp">   -427.41409664 </i>
    <i name="e_0_energy">   -427.44067937 </i>
   </energy>
  </scstep>
  <scstep>
   <time name="dav">  159.28  159.31</time>
   <time name="total">  164.43  164.46</time>
   <energy>
    <i name="e_fr_energy">   -427.46731841 </i>
    <i name="e_wo_entrp">   -427.41414136 </i>
    <i name="e_0_energy">   -427.44072989 </i>
   </energy>
  </scstep>
  <scstep>
   <time name="dav">  118.73  118.76</time>
   <time name="total">  125.55  125.58</time>
   <energy>
    <i name="e_fr_energy">   -427.46733987 </i>
    <i name="e_wo_entrp">   -427.41416471 </i>
    <i name="e_0_energy">   -427.44075229 </i>
   </energy>
  </scstep>
  <scstep>
   <time name="dav">  119.94  120.02</time>
   <time name="total">  124.96  125.04</time>
   <energy>
    <i name="e_fr_energy">   -427.46735646 </i>
    <i name="e_wo_entrp">   -427.41418456 </i>
    <i name="e_0_energy">   -427.44077051 </i>
   </energy>
  </scstep>
  <scstep>
   <time name="dav">  116.95  116.98</time>
   <time name="total">  121.96  121.99</time>
   <energy>
    <i name="e_fr_energy">   -427.46737781 </i>
    <i name="e_wo_entrp">   -427.41421402 </i>
    <i name="e_0_energy">   -427.44079592 </i>
   </energy>
  </scstep>
  <scstep>
   <time name="dav">  114.93  114.96</time>
   <time name="total">  119.93  119.96</time>
   <energy>
    <i name="e_fr_energy">   -427.46738344 </i>
    <i name="e_wo_entrp">   -427.41422119 </i>
    <i name="e_0_energy">   -427.44080231 </i>
   </energy>
  </scstep>
  <scstep>
   <time name="dav">  112.66  112.71</time>
   <time name="total">  117.66  117.71</time>
   <energy>
    <i name="e_fr_energy">   -427.46739181 </i>
    <i name="e_wo_entrp">   -427.41422626 </i>
    <i name="e_0_energy">   -427.44080903 </i>
   </energy>
  </scstep>
  <scstep>
   <time name="dav">  112.05  112.07</time>
   <time name="total">  117.05  117.07</time>
   <energy>
    <i name="e_fr_energy">   -427.46739423 </i>
    <i name="e_wo_entrp">   -427.41422766 </i>
    <i name="e_0_energy">   -427.44081094 </i>
   </energy>
  </scstep>
  <scstep>
   <time name="dav">  109.72  109.76</time>
   <time name="total">  116.53  116.57</time>
   <energy>
    <i name="e_fr_energy">   -427.46739543 </i>
    <i name="e_wo_entrp">   -427.41422902 </i>
    <i name="e_0_energy">   -427.44081223 </i>
   </energy>
  </scstep>
  <scstep>
   <time name="dav">  107.08  107.09</time>
   <time name="total">  113.31  113.34</time>
   <energy>
    <i name="e_fr_energy">   -427.46739695 </i>
    <i name="e_wo_entrp">   -427.41423008 </i>
    <i name="e_0_energy">   -427.44081351 </i>
   </energy>
  </scstep>
  <scstep>
   <time name="dav">  109.46  109.48</time>
   <time name="total">  109.96  109.98</time>
   <energy>
    <i name="alphaZ">   6463.29446255 </i>
    <i name="ewald"> 664560.46727393 </i>
    <i name="hartreedc">-813351.43452290 </i>
    <i name="XCdc">   4896.83218410 </i>
    <i name="pawpsdc"> 123760.04370412 </i>
    <i name="pawaedc">-139977.10663578 </i>
    <i name="eentropy">     -0.05316668 </i>
    <i name="bandstr">  -4298.34141268 </i>
    <i name="atom"> 157518.83071590 </i>
    <i name="e_fr_energy">   -427.46739743 </i>
    <i name="e_wo_entrp">   -427.41423076 </i>
    <i name="e_0_energy">   -427.44081409 </i>
   </energy>
  </scstep>
  <structure>
   <crystal>
    <varray name="basis" >
     <v>      10.28518105       0.00000000       0.00000000 </v>
     <v>       5.14259052       8.90722807       0.00000000 </v>
     <v>       0.00000000       0.00000000      27.79016876 </v>
    </varray>
    <i name="volume">   2545.92553775 </i>
    <varray name="rec_basis" >
     <v>       0.09722726      -0.05613419       0.00000000 </v>
     <v>       0.00000000       0.11226837       0.00000000 </v>
     <v>       0.00000000       0.00000000       0.03598395 </v>
    </varray>
   </crystal>
   <varray name="positions" >
    <v>       0.00000000       0.00000000       0.22663990 </v>
    <v>       0.00000000       0.50000000       0.22663990 </v>
    <v>       0.50000000       0.00000000       0.22663990 </v>
    <v>       0.50000000       0.50000000       0.22663990 </v>
    <v>       0.00000000       0.25000000       0.22663990 </v>
    <v>       0.00000000       0.75000000       0.22663990 </v>
    <v>       0.50000000       0.25000000       0.22663990 </v>
    <v>       0.50000000       0.75000000       0.22663990 </v>
    <v>       0.25000000       0.00000000       0.22663990 </v>
    <v>       0.25000000       0.50000000       0.22663990 </v>
    <v>       0.75000000       0.00000000       0.22663990 </v>
    <v>       0.75000000       0.50000000       0.22663990 </v>
    <v>       0.25000000       0.25000000       0.22663990 </v>
    <v>       0.25000000       0.75000000       0.22663990 </v>
    <v>       0.75000000       0.25000000       0.22663990 </v>
    <v>       0.75000000       0.75000000       0.22663990 </v>
    <v>       0.16666666       0.16666666       0.30218653 </v>
    <v>       0.16666666       0.66666666       0.30218653 </v>
    <v>       0.66666666       0.16666666       0.30218653 </v>
    <v>       0.66666666       0.66666666       0.30218653 </v>
    <v>       0.16666666       0.41666666       0.30218653 </v>
    <v>       0.16666666       0.91666666       0.30218653 </v>
    <v>       0.66666666       0.41666666       0.30218653 </v>
    <v>       0.66666666       0.91666666       0.30218653 </v>
    <v>       0.41666666       0.16666666       0.30218653 </v>
    <v>       0.41666666       0.66666666       0.30218653 </v>
    <v>       0.91666666       0.16666666       0.30218653 </v>
    <v>       0.91666666       0.66666666       0.30218653 </v>
    <v>       0.41666666       0.41666666       0.30218653 </v>
    <v>       0.41666666       0.91666666       0.30218653 </v>
    <v>       0.91666666       0.41666666       0.30218653 </v>
    <v>       0.91666666       0.91666666       0.30218653 </v>
    <v>       0.08333333       0.08333333       0.37716320 </v>
    <v>       0.08333333       0.58333333       0.37716320 </v>
    <v>       0.58333333       0.08333333       0.37716320 </v>
    <v>       0.58333333       0.58333333       0.37716320 </v>
    <v>       0.08351614       0.33324190       0.37729758 </v>
    <v>       0.08351614       0.83324190       0.37729758 </v>
    <v>       0.58351614       0.33324190       0.37729758 </v>
    <v>       0.58351614       0.83324190       0.37729758 </v>
    <v>       0.33324190       0.08351614       0.37729758 </v>
    <v>       0.33324190       0.58351614       0.37729758 </v>
    <v>       0.83324190       0.08351614       0.37729758 </v>
    <v>       0.83324190       0.58351614       0.37729758 </v>
    <v>       0.33324190       0.33324190       0.37729758 </v>
    <v>       0.33324190       0.83324190       0.37729758 </v>
    <v>       0.83324190       0.33324190       0.37729758 </v>
    <v>       0.83324190       0.83324190       0.37729758 </v>
    <v>       0.00012997       0.00012997       0.45242342 </v>
    <v>       0.00012997       0.50012997       0.45242342 </v>
    <v>       0.50012997       0.00012997       0.45242342 </v>
    <v>       0.50012997       0.50012997       0.45242342 </v>
    <v>       0.00012997       0.24974005       0.45242342 </v>
    <v>       0.00012997       0.74974005       0.45242342 </v>
    <v>       0.50012997       0.24974005       0.45242342 </v>
    <v>       0.50012997       0.74974005       0.45242342 </v>
    <v>       0.24974005       0.00012997       0.45242342 </v>
    <v>       0.24974005       0.50012997       0.45242342 </v>
    <v>       0.74974005       0.00012997       0.45242342 </v>
    <v>       0.74974005       0.50012997       0.45242342 </v>
    <v>       0.25000000       0.25000000       0.45288750 </v>
    <v>       0.25000000       0.75000000       0.45288750 </v>
    <v>       0.75000000       0.25000000       0.45288750 </v>
    <v>       0.75000000       0.75000000       0.45288750 </v>
    <v>       0.16660598       0.16660598       0.52813907 </v>
    <v>       0.16660598       0.66660598       0.52813907 </v>
    <v>       0.66660598       0.16660598       0.52813907 </v>
    <v>       0.66660598       0.66660598       0.52813907 </v>
    <v>       0.16660598       0.41678801       0.52813907 </v>
    <v>       0.16660598       0.91678801       0.52813907 </v>
    <v>       0.66660598       0.41678801       0.52813907 </v>
    <v>       0.66660598       0.91678801       0.52813907 </v>
    <v>       0.41678801       0.16660598       0.52813907 </v>
    <v>       0.41678801       0.66660598       0.52813907 </v>
    <v>       0.91678801       0.16660598       0.52813907 </v>
    <v>       0.91678801       0.66660598       0.52813907 </v>
    <v>       0.41804166       0.41666666       0.52792828 </v>
    <v>       0.41666666       0.91666666       0.52741939 </v>
    <v>       0.91666666       0.41666666       0.52741939 </v>
    <v>       0.91666666       0.91666666       0.52741939 </v>
    <v>       0.08333333       0.08333333       0.60253339 </v>
    <v>       0.08333333       0.58333333       0.60253339 </v>
    <v>       0.58333333       0.08333333       0.60253339 </v>
    <v>       0.58333333       0.58333333       0.60253339 </v>
    <v>       0.08130935       0.33434529       0.60320464 </v>
    <v>       0.08130935       0.83434529       0.60320464 </v>
    <v>       0.58130935       0.33434529       0.60320464 </v>
    <v>       0.58130935       0.83434529       0.60320464 </v>
    <v>       0.33434529       0.08130935       0.60320464 </v>
    <v>       0.33434529       0.58130935       0.60320464 </v>
    <v>       0.83434529       0.08130935       0.60320464 </v>
    <v>       0.83434529       0.58130935       0.60320464 </v>
    <v>       0.33434529       0.33434529       0.60320464 </v>
    <v>       0.33434529       0.83434529       0.60320464 </v>
    <v>       0.83434529       0.33434529       0.60320464 </v>
    <v>       0.83434529       0.83434529       0.60320464 </v>
    <v>       0.49714648       0.49714648       0.68057248 </v>
    <v>       0.49714648       0.99714648       0.68057248 </v>
    <v>       0.99714648       0.49714648       0.68057248 </v>
    <v>       0.99714648       0.99714648       0.68057248 </v>
    <v>       0.49714648       0.25570704       0.68057248 </v>
    <v>       0.49714648       0.75570704       0.68057248 </v>
    <v>       0.99714648       0.25570704       0.68057248 </v>
    <v>       0.99714648       0.75570704       0.68057248 </v>
    <v>       0.25570704       0.49714648       0.68057248 </v>
    <v>       0.25570704       0.99714648       0.68057248 </v>
    <v>       0.75570704       0.49714648       0.68057248 </v>
    <v>       0.75570704       0.99714648       0.68057248 </v>
    <v>       0.25000000       0.25000000       0.67480871 </v>
    <v>       0.25000000       0.75000000       0.67480871 </v>
    <v>       0.75000000       0.25000000       0.67480871 </v>
    <v>       0.75000000       0.75000000       0.67480871 </v>
    <v>       0.08333333       0.08333333       0.72043888 </v>
    <v>       0.08333333       0.58333333       0.72043888 </v>
    <v>       0.58333333       0.08333333       0.72043888 </v>
    <v>       0.58333333       0.58333333       0.72043888 </v>
   </varray>
  </structure>
  <varray name="forces" >
   <v>       0.00784406       0.00452366       0.07151426 </v>
   <v>       0.00782669       0.00443198       0.07170333 </v>
   <v>       0.00778363       0.00449383       0.07165321 </v>
   <v>       0.00789192       0.00450636       0.07164797 </v>
   <v>       0.00001183      -0.00912550       0.07167497 </v>
   <v>       0.00002783      -0.00906820       0.07174443 </v>
   <v>       0.00008900      -0.00912400       0.07162726 </v>
   <v>       0.00012489      -0.00905587       0.07164474 </v>
   <v>      -0.00795704       0.00460259       0.07183562 </v>
   <v>      -0.00790767       0.00461832       0.07160985 </v>
   <v>      -0.00795855       0.00448454       0.07173646 </v>
   <v>      -0.00781907       0.00471423       0.07168685 </v>
   <v>      -0.00000591       0.00000207       0.08631444 </v>
   <v>      -0.00001056       0.00002714       0.08631923 </v>
   <v>       0.00003976      -0.00002964       0.08632501 </v>
   <v>       0.00005979       0.00000087       0.08650493 </v>
   <v>       0.00694252       0.00388922      -0.07983225 </v>
   <v>       0.00689897       0.00393663      -0.08000190 </v>
   <v>       0.00679357       0.00402321      -0.08000298 </v>
   <v>       0.00708017       0.00395217      -0.07991849 </v>
   <v>      -0.00005726      -0.00814543      -0.07999409 </v>
   <v>       0.00020433      -0.00807661      -0.07987033 </v>
   <v>      -0.00003904      -0.00804553      -0.07999803 </v>
   <v>       0.00023310      -0.00814643      -0.07983220 </v>
   <v>      -0.00723743       0.00405508      -0.07998995 </v>
   <v>      -0.00711013       0.00417180      -0.07999272 </v>
   <v>      -0.00704253       0.00418294      -0.07991025 </v>
   <v>      -0.00702981       0.00419224      -0.07974903 </v>
   <v>       0.00005796       0.00000067      -0.05922212 </v>
   <v>       0.00007774      -0.00000225      -0.05935977 </v>
   <v>       0.00007434      -0.00004437      -0.05928549 </v>
   <v>       0.00015283       0.00004510      -0.05921036 </v>
   <v>       0.00012320       0.00000159      -0.00003496 </v>
   <v>      -0.00000526      -0.00000698       0.00019621 </v>
   <v>      -0.00002037       0.00000039       0.00009831 </v>
   <v>      -0.00000696       0.00000949      -0.00001070 </v>
   <v>      -0.00012414      -0.00014897      -0.00028564 </v>
   <v>      -0.00000707       0.00009412      -0.00015653 </v>
   <v>      -0.00008900       0.00013424       0.00061117 </v>
   <v>      -0.00006992      -0.00000826       0.00001206 </v>
   <v>      -0.00023691      -0.00005417      -0.00026101 </v>
   <v>       0.00014012      -0.00015163       0.00071913 </v>
   <v>       0.00000172      -0.00009576      -0.00000490 </v>
   <v>      -0.00008883       0.00001382      -0.00001308 </v>
   <v>       0.00017449       0.00002181       0.00082783 </v>
   <v>       0.00000288       0.00019246      -0.00011485 </v>
   <v>       0.00012554       0.00002268       0.00001220 </v>
   <v>      -0.00009518      -0.00000099      -0.00004497 </v>
   <v>       0.00008983       0.00017469       0.00000954 </v>
   <v>       0.00089516      -0.00027506       0.00056388 </v>
   <v>       0.00017721       0.00054503       0.00031718 </v>
   <v>      -0.00512123      -0.00210466       0.00534354 </v>
   <v>      -0.00021637      -0.00010173       0.00000144 </v>
   <v>       0.00057226      -0.00041917       0.00056356 </v>
   <v>      -0.00140299       0.01213702       0.01584747 </v>
   <v>       0.00003672       0.00001014       0.00006630 </v>
   <v>      -0.00008612      -0.00007724       0.00000212 </v>
   <v>       0.01574301      -0.00985924       0.02590066 </v>
   <v>       0.00008395       0.00012365       0.00032100 </v>
   <v>       0.00027667       0.00002218       0.00007039 </v>
   <v>       0.00053463       0.00047315       0.00050278 </v>
   <v>      -0.00028635      -0.00050385       0.00009155 </v>
   <v>      -0.00034114       0.00003083      -0.00031717 </v>
   <v>       0.00008720       0.00000188      -0.00017696 </v>
   <v>       0.00053069       0.00030687      -0.00011721 </v>
   <v>       0.00491082      -0.01078868      -0.00143357 </v>
   <v>       0.00516895      -0.01136523      -0.00124293 </v>
   <v>       0.00052958       0.00030283      -0.00008827 </v>
   <v>       0.02322824      -0.00004294      -0.00161223 </v>
   <v>      -0.00000114      -0.00000476      -0.00003429 </v>
   <v>       0.02526115      -0.00014480      -0.00124790 </v>
   <v>       0.00000277       0.00012087      -0.00018878 </v>
   <v>       0.00482703       0.01089926      -0.00161236 </v>
   <v>       0.00494371       0.01143389      -0.00143844 </v>
   <v>       0.00051965      -0.00030085       0.00004715 </v>
   <v>       0.00074070      -0.00042737      -0.00029858 </v>
   <v>      -0.09312452       0.00000176      -0.09605267 </v>
   <v>      -0.00007650       0.00013891      -0.00012600 </v>
   <v>       0.00016772      -0.00004764      -0.00009041 </v>
   <v>      -0.00000240      -0.00009970      -0.00005387 </v>
   <v>      -0.00007181      -0.00000141      -0.00029012 </v>
   <v>      -0.00017808      -0.00007708      -0.00048819 </v>
   <v>      -0.00031808      -0.00048904      -0.00015999 </v>
   <v>       0.00066536       0.00057123       0.00017012 </v>
   <v>       0.00041796      -0.00012809      -0.00031004 </v>
   <v>       0.00026045       0.00006048      -0.00010480 </v>
   <v>       0.01635770      -0.01034840       0.02762856 </v>
   <v>       0.00002132      -0.00015169      -0.00036021 </v>
   <v>      -0.00000191       0.00021935      -0.00025992 </v>
   <v>      -0.00148579       0.01270695       0.01609350 </v>
   <v>       0.00058790      -0.00024569       0.00015369 </v>
   <v>      -0.00023800       0.00000374      -0.00030393 </v>
   <v>      -0.00578696      -0.00252783       0.00506454 </v>
   <v>       0.00000469       0.00046006       0.00001616 </v>
   <v>       0.00075641      -0.00037324       0.00022459 </v>
   <v>       0.00002905       0.00015209      -0.00022789 </v>
   <v>      -0.00029855      -0.00033467       0.00069203 </v>
   <v>       0.00005770       0.00022196      -0.00086486 </v>
   <v>       0.00005127      -0.00006506      -0.00074732 </v>
   <v>      -0.00014349      -0.00011581      -0.00065496 </v>
   <v>       0.00027629       0.00035122       0.00053573 </v>
   <v>      -0.00021649      -0.00018599      -0.00101842 </v>
   <v>       0.00005225       0.00015634      -0.00078652 </v>
   <v>       0.00004847       0.00011437      -0.00078405 </v>
   <v>       0.00029808      -0.00001430       0.00039211 </v>
   <v>       0.00011870      -0.00004080      -0.00089354 </v>
   <v>      -0.00014735      -0.00012864      -0.00102880 </v>
   <v>       0.00012869       0.00003808      -0.00091378 </v>
   <v>      -0.00006139       0.00002234      -0.00010216 </v>
   <v>      -0.00010027      -0.00003928      -0.00011922 </v>
   <v>      -0.00012592       0.00001531      -0.00012554 </v>
   <v>      -0.00001957      -0.00000169      -0.00002721 </v>
   <v>       0.00000981      -0.00000210       0.00145863 </v>
   <v>       0.00004477      -0.00006082       0.00119017 </v>
   <v>      -0.00006745      -0.00028392       0.00123771 </v>
   <v>       0.00054107       0.00034735       0.00127413 </v>
  </varray>
  <varray name="stress" >
   <v>      -2.05552182       0.00417802       0.00200921 </v>
   <v>       0.00417801      -2.05676813      -0.00048122 </v>
   <v>       0.00200919      -0.00048121      -2.15808373 </v>
  </varray>
  <energy>
   <i name="e_fr_energy">   -427.46739743 </i>
   <i name="e_wo_entrp">   -427.44081409 </i>
   <i name="e_0_energy">     -0.05316668 </i>
  </energy>
  <time name="totalsc"> 7010.22 7058.93</time>
  <eigenvalues>
   <array>
    <dimension dim="1">band</dimension>
    <dimension dim="2">kpoint</dimension>
    <dimension dim="3">spin</dimension>
    <field>eigene</field>
    <field>occ</field>
    <set>
     <set comment="spin 1">
      <set comment="kpoint 1">
       <r>  -18.6065    1.0000 </r>
       <r>  -18.5936    1.0000 </r>
       <r>  -18.5935    1.0000 </r>
       <r>  -18.5935    1.0000 </r>
       <r>   -9.4526    1.0000 </r>
       <r>   -8.9610    1.0000 </r>
       <r>   -8.1734    1.0000 </r>
       <r>   -7.5994    1.0000 </r>
       <r>   -7.5990    1.0000 </r>
       <r>   -7.5984    1.0000 </r>
       <r>   -7.5773    1.0000 </r>
       <r>   -7.5768    1.0000 </r>
       <r>   -7.5763    1.0000 </r>
       <r>   -7.2210    1.0000 </r>
       <r>   -7.2192    1.0000 </r>
       <r>   -7.2191    1.0000 </r>
       <r>   -7.1996    1.0000 </r>
       <r>   -7.1460    1.0000 </r>
       <r>   -7.1455    1.0000 </r>
       <r>   -7.1449    1.0000 </r>
       <r>   -6.6268    1.0000 </r>
       <r>   -6.6266    1.0000 </r>
       <r>   -6.6247    1.0000 </r>
       <r>   -6.4851    1.0000 </r>
       <r>   -6.4849    1.0000 </r>
       <r>   -6.4847    1.0000 </r>
       <r>   -6.2515    1.0000 </r>
       <r>   -5.9493    1.0000 </r>
       <r>   -5.9481    1.0000 </r>
       <r>   -5.9479    1.0000 </r>
       <r>   -5.7419    1.0000 </r>
       <r>   -5.7415    1.0000 </r>
       <r>   -5.7411    1.0000 </r>
       <r>   -5.6691    1.0000 </r>
       <r>   -5.6247    1.0000 </r>
       <r>   -5.6246    1.0000 </r>
       <r>   -5.4385    1.0000 </r>
       <r>   -5.4098    1.0000 </r>
       <r>   -5.4097    1.0000 </r>
       <r>   -5.4097    1.0000 </r>
       <r>   -5.3413    1.0000 </r>
       <r>   -5.3411    1.0000 </r>
       <r>   -5.3402    1.0000 </r>
       <r>   -5.3237    1.0000 </r>
       <r>   -5.2827    1.0000 </r>
       <r>   -5.2825    1.0000 </r>
       <r>   -5.2150    1.0000 </r>
       <r>   -5.2090    1.0000 </r>
       <r>   -5.2085    1.0000 </r>
       <r>   -5.2084    1.0000 </r>
       <r>   -5.1338    1.0000 </r>
       <r>   -5.1337    1.0000 </r>
       <r>   -5.1231    1.0000 </r>
       <r>   -5.0560    1.0000 </r>
       <r>   -5.0336    1.0000 </r>
       <r>   -5.0335    1.0000 </r>
       <r>   -5.0038    1.0000 </r>
       <r>   -5.0035    1.0000 </r>
       <r>   -5.0030    1.0000 </r>
       <r>   -4.9775    1.0000 </r>
       <r>   -4.9771    1.0000 </r>
       <r>   -4.9768    1.0000 </r>
       <r>   -4.9629    1.0000 </r>
       <r>   -4.9625    1.0000 </r>
       <r>   -4.9561    1.0000 </r>
       <r>   -4.9559    1.0000 </r>
       <r>   -4.9558    1.0000 </r>
       <r>   -4.9355    1.0000 </r>
       <r>   -4.8829    1.0000 </r>
       <r>   -4.8828    1.0000 </r>
       <r>   -4.8822    1.0000 </r>
       <r>   -4.8536    1.0000 </r>
       <r>   -4.8534    1.0000 </r>
       <r>   -4.8532    1.0000 </r>
       <r>   -4.8402    1.0000 </r>
       <r>   -4.8243    1.0000 </r>
       <r>   -4.8242    1.0000 </r>
       <r>   -4.8118    1.0000 </r>
       <r>   -4.8115    1.0000 </r>
       <r>   -4.8112    1.0000 </r>
       <r>   -4.7490    1.0000 </r>
       <r>   -4.7489    1.0000 </r>
       <r>   -4.7489    1.0000 </r>
       <r>   -4.7066    1.0000 </r>
       <r>   -4.7065    1.0000 </r>
       <r>   -4.7065    1.0000 </r>
       <r>   -4.7024    1.0000 </r>
       <r>   -4.6941    1.0000 </r>
       <r>   -4.6939    1.0000 </r>
       <r>   -4.6215    1.0000 </r>
       <r>   -4.6213    1.0000 </r>
       <r>   -4.6210    1.0000 </r>
       <r>   -4.5863    1.0000 </r>
       <r>   -4.5858    1.0000 </r>
       <r>   -4.5852    1.0000 </r>
       <r>   -4.5821    1.0000 </r>
       <r>   -4.5782    1.0000 </r>
       <r>   -4.5780    1.0000 </r>
       <r>   -4.5455    1.0000 </r>
       <r>   -4.5387    1.0000 </r>
       <r>   -4.5386    1.0000 </r>
       <r>   -4.5381    1.0000 </r>
       <r>   -4.5379    1.0000 </r>
       <r>   -4.5376    1.0000 </r>
       <r>   -4.5278    1.0000 </r>
       <r>   -4.5277    1.0000 </r>
       <r>   -4.5275    1.0000 </r>
       <r>   -4.5041    1.0000 </r>
       <r>   -4.5036    1.0000 </r>
       <r>   -4.5034    1.0000 </r>
       <r>   -4.4604    1.0000 </r>
       <r>   -4.4602    1.0000 </r>
       <r>   -4.4602    1.0000 </r>
       <r>   -4.4544    1.0000 </r>
       <r>   -4.4542    1.0000 </r>
       <r>   -4.4542    1.0000 </r>
       <r>   -4.4471    1.0000 </r>
       <r>   -4.4465    1.0000 </r>
       <r>   -4.4463    1.0000 </r>
       <r>   -4.4067    1.0000 </r>
       <r>   -4.4065    1.0000 </r>
       <r>   -4.4063    1.0000 </r>
       <r>   -4.3886    1.0000 </r>
       <r>   -4.3883    1.0000 </r>
       <r>   -4.3509    1.0000 </r>
       <r>   -4.3498    1.0000 </r>
       <r>   -4.3496    1.0000 </r>
       <r>   -4.3368    1.0000 </r>
       <r>   -4.2427    1.0000 </r>
       <r>   -4.2427    1.0000 </r>
       <r>   -4.2290    1.0000 </r>
       <r>   -4.2284    1.0000 </r>
       <r>   -4.2280    1.0000 </r>
       <r>   -4.2198    1.0000 </r>
       <r>   -4.2195    1.0000 </r>
       <r>   -4.2192    1.0000 </r>
       <r>   -4.2173    1.0000 </r>
       <r>   -4.2172    1.0000 </r>
       <r>   -4.2166    1.0000 </r>
       <r>   -4.2139    1.0000 </r>
       <r>   -4.2138    1.0000 </r>
       <r>   -4.2127    1.0000 </r>
       <r>   -4.2111    1.0000 </r>
       <r>   -4.2107    1.0000 </r>
       <r>   -4.2104    1.0000 </r>
       <r>   -4.1793    1.0000 </r>
       <r>   -4.1792    1.0000 </r>
       <r>   -4.1789    1.0000 </r>
       <r>   -4.0971    1.0000 </r>
       <r>   -4.0969    1.0000 </r>
       <r>   -4.0967    1.0000 </r>
       <r>   -4.0789    1.0000 </r>
       <r>   -4.0787    1.0000 </r>
       <r>   -4.0785    1.0000 </r>
       <r>   -4.0763    1.0000 </r>
       <r>   -4.0760    1.0000 </r>
       <r>   -4.0760    1.0000 </r>
       <r>   -4.0563    1.0000 </r>
       <r>   -4.0562    1.0000 </r>
       <r>   -4.0558    1.0000 </r>
       <r>   -4.0445    1.0000 </r>
       <r>   -4.0442    1.0000 </r>
       <r>   -4.0440    1.0000 </r>
       <r>   -4.0167    1.0000 </r>
       <r>   -4.0053    1.0000 </r>
       <r>   -4.0043    1.0000 </r>
       <r>   -4.0042    1.0000 </r>
       <r>   -3.9691    1.0000 </r>
       <r>   -3.9691    1.0000 </r>
       <r>   -3.9380    1.0000 </r>
       <r>   -3.9379    1.0000 </r>
       <r>   -3.9376    1.0000 </r>
       <r>   -3.9288    1.0000 </r>
       <r>   -3.9288    1.0000 </r>
       <r>   -3.9287    1.0000 </r>
       <r>   -3.9091    1.0000 </r>
       <r>   -3.9088    1.0000 </r>
       <r>   -3.9084    1.0000 </r>
       <r>   -3.8793    1.0000 </r>
       <r>   -3.8792    1.0000 </r>
       <r>   -3.8779    1.0000 </r>
       <r>   -3.8766    1.0000 </r>
       <r>   -3.8763    1.0000 </r>
       <r>   -3.8754    1.0000 </r>
       <r>   -3.8323    1.0000 </r>
       <r>   -3.8319    1.0000 </r>
       <r>   -3.8308    1.0000 </r>
       <r>   -3.8306    1.0000 </r>
       <r>   -3.8119    1.0000 </r>
       <r>   -3.8117    1.0000 </r>
       <r>   -3.8115    1.0000 </r>
       <r>   -3.7983    1.0000 </r>
       <r>   -3.7980    1.0000 </r>
       <r>   -3.7978    1.0000 </r>
       <r>   -3.7862    1.0000 </r>
       <r>   -3.7861    1.0000 </r>
       <r>   -3.7860    1.0000 </r>
       <r>   -3.7745    1.0000 </r>
       <r>   -3.7743    1.0000 </r>
       <r>   -3.7742    1.0000 </r>
       <r>   -3.7507    1.0000 </r>
       <r>   -3.7505    1.0000 </r>
       <r>   -3.7503    1.0000 </r>
       <r>   -3.7087    1.0000 </r>
       <r>   -3.7085    1.0000 </r>
       <r>   -3.7084    1.0000 </r>
       <r>   -3.7068    1.0000 </r>
       <r>   -3.7068    1.0000 </r>
       <r>   -3.7066    1.0000 </r>
       <r>   -3.6819    1.0000 </r>
       <r>   -3.6817    1.0000 </r>
       <r>   -3.6815    1.0000 </r>
       <r>   -3.6767    1.0000 </r>
       <r>   -3.6765    1.0000 </r>
       <r>   -3.6760    1.0000 </r>
       <r>   -3.6690    1.0000 </r>
       <r>   -3.6683    1.0000 </r>
       <r>   -3.6408    1.0000 </r>
       <r>   -3.6403    1.0000 </r>
       <r>   -3.6400    1.0000 </r>
       <r>   -3.6174    1.0000 </r>
       <r>   -3.6159    1.0000 </r>
       <r>   -3.6153    1.0000 </r>
       <r>   -3.6149    1.0000 </r>
       <r>   -3.6033    1.0000 </r>
       <r>   -3.6024    1.0000 </r>
       <r>   -3.6023    1.0000 </r>
       <r>   -3.6011    1.0000 </r>
       <r>   -3.6006    1.0000 </r>
       <r>   -3.6002    1.0000 </r>
       <r>   -3.5972    1.0000 </r>
       <r>   -3.5971    1.0000 </r>
       <r>   -3.5970    1.0000 </r>
       <r>   -3.5810    1.0000 </r>
       <r>   -3.5810    1.0000 </r>
       <r>   -3.5808    1.0000 </r>
       <r>   -3.5504    1.0000 </r>
       <r>   -3.5501    1.0000 </r>
       <r>   -3.5500    1.0000 </r>
       <r>   -3.5364    1.0000 </r>
       <r>   -3.5302    1.0000 </r>
       <r>   -3.5116    1.0000 </r>
       <r>   -3.5112    1.0000 </r>
       <r>   -3.4478    1.0000 </r>
       <r>   -3.4478    1.0000 </r>
       <r>   -3.4471    1.0000 </r>
       <r>   -3.4418    1.0000 </r>
       <r>   -3.4334    1.0000 </r>
       <r>   -3.4332    1.0000 </r>
       <r>   -3.4330    1.0000 </r>
       <r>   -3.4279    1.0000 </r>
       <r>   -3.4276    1.0000 </r>
       <r>   -3.4273    1.0000 </r>
       <r>   -3.4190    1.0000 </r>
       <r>   -3.4187    1.0000 </r>
       <r>   -3.4183    1.0000 </r>
       <r>   -3.4179    1.0000 </r>
       <r>   -3.4178    1.0000 </r>
       <r>   -3.4158    1.0000 </r>
       <r>   -3.4154    1.0000 </r>
       <r>   -3.4153    1.0000 </r>
       <r>   -3.4098    1.0000 </r>
       <r>   -3.3983    1.0000 </r>
       <r>   -3.3980    1.0000 </r>
       <r>   -3.3978    1.0000 </r>
       <r>   -3.3860    1.0000 </r>
       <r>   -3.3859    1.0000 </r>
       <r>   -3.3750    1.0000 </r>
       <r>   -3.3628    1.0000 </r>
       <r>   -3.3624    1.0000 </r>
       <r>   -3.3617    1.0000 </r>
       <r>   -3.3496    1.0000 </r>
       <r>   -3.3496    1.0000 </r>
       <r>   -3.3461    1.0000 </r>
       <r>   -3.3461    1.0000 </r>
       <r>   -3.3461    1.0000 </r>
       <r>   -3.3358    1.0000 </r>
       <r>   -3.3356    1.0000 </r>
       <r>   -3.3352    1.0000 </r>
       <r>   -3.3150    1.0000 </r>
       <r>   -3.3148    1.0000 </r>
       <r>   -3.3043    1.0000 </r>
       <r>   -3.3042    1.0000 </r>
       <r>   -3.3039    1.0000 </r>
[...]
       <r>   -14.5221     0.0000     8.0000 </r>
       <r>   -14.4279     0.0000     8.0000 </r>
       <r>   -14.3337     0.0000     8.0000 </r>
       <r>   -14.2395     0.0000     8.0000 </r>
       <r>   -14.1453     0.0000     8.0000 </r>
       <r>   -14.0511     0.0000     8.0000 </r>
       <r>   -13.9570     0.0000     8.0000 </r>
       <r>   -13.8628     0.0000     8.0000 </r>
       <r>   -13.7686     0.0000     8.0000 </r>
       <r>   -13.6744     0.0000     8.0000 </r>
       <r>   -13.5802     0.0000     8.0000 </r>
       <r>   -13.4860     0.0000     8.0000 </r>
       <r>   -13.3918     0.0000     8.0000 </r>
       <r>   -13.2976     0.0000     8.0000 </r>
       <r>   -13.2034     0.0000     8.0000 </r>
       <r>   -13.1093     0.0000     8.0000 </r>
       <r>   -13.0151     0.0000     8.0000 </r>
       <r>   -12.9209     0.0000     8.0000 </r>
       <r>   -12.8267     0.0000     8.0000 </r>
       <r>   -12.7325     0.0000     8.0000 </r>
       <r>   -12.6383     0.0000     8.0000 </r>
       <r>   -12.5441     0.0000     8.0000 </r>
       <r>   -12.4499     0.0000     8.0000 </r>
       <r>   -12.3557     0.0000     8.0000 </r>
       <r>   -12.2616     0.0000     8.0000 </r>
       <r>   -12.1674     0.0000     8.0000 </r>
       <r>   -12.0732     0.0000     8.0000 </r>
       <r>   -11.9790     0.0000     8.0000 </r>
       <r>   -11.8848     0.0000     8.0000 </r>
       <r>   -11.7906     0.0000     8.0000 </r>
       <r>   -11.6964     0.0000     8.0000 </r>
       <r>   -11.6022     0.0000     8.0000 </r>
       <r>   -11.5080     0.0000     8.0000 </r>
       <r>   -11.4139     0.0000     8.0000 </r>
       <r>   -11.3197     0.0000     8.0000 </r>
       <r>   -11.2255     0.0000     8.0000 </r>
       <r>   -11.1313     0.0000     8.0000 </r>
       <r>   -11.0371     0.0000     8.0000 </r>
       <r>   -10.9429     0.0000     8.0000 </r>
       <r>   -10.8487     0.0000     8.0000 </r>
       <r>   -10.7545     0.0000     8.0000 </r>
       <r>   -10.6603     0.0000     8.0000 </r>
       <r>   -10.5662     0.0000     8.0000 </r>
       <r>   -10.4720     0.0000     8.0000 </r>
       <r>   -10.3778     0.0000     8.0000 </r>
       <r>   -10.2836     0.0000     8.0000 </r>
       <r>   -10.1894     0.0000     8.0000 </r>
       <r>   -10.0952     0.0000     8.0000 </r>
       <r>   -10.0010     0.0000     8.0000 </r>
       <r>    -9.9068     0.0000     8.0000 </r>
       <r>    -9.8126     0.0000     8.0000 </r>
       <r>    -9.7185     0.0000     8.0000 </r>
       <r>    -9.6243     0.0000     8.0000 </r>
       <r>    -9.5301     0.0189     8.0018 </r>
       <r>    -9.4359     0.8957     8.0861 </r>
       <r>    -9.3417     3.2566     8.3929 </r>
       <r>    -9.2475     5.0329     8.8669 </r>
       <r>    -9.1533     0.2773     8.8930 </r>
       <r>    -9.0591     5.8416     9.4433 </r>
       <r>    -8.9649     6.2580    10.0327 </r>
       <r>    -8.8708     6.4891    10.6439 </r>
       <r>    -8.7766     6.1577    11.2239 </r>
       <r>    -8.6824     0.5725    11.2778 </r>
       <r>    -8.5882    15.5299    12.7405 </r>
       <r>    -8.4940    11.2940    13.8043 </r>
       <r>    -8.3998     6.2078    14.3890 </r>
       <r>    -8.3056     6.1987    14.9729 </r>
       <r>    -8.2114     0.8257    15.0506 </r>
       <r>    -8.1172    12.9707    16.2723 </r>
       <r>    -8.0231    14.4777    17.6360 </r>
       <r>    -7.9289    13.2873    18.8875 </r>
       <r>    -7.8347    19.5706    20.7308 </r>
       <r>    -7.7405     6.8844    21.3793 </r>
       <r>    -7.6463     6.0162    21.9459 </r>
       <r>    -7.5521    13.0923    23.1791 </r>
       <r>    -7.4579    15.7956    24.6668 </r>
       <r>    -7.3637    16.3646    26.2082 </r>
       <r>    -7.2695     8.8547    27.0422 </r>
       <r>    -7.1754    20.6079    28.9832 </r>
       <r>    -7.0812    16.2497    30.5138 </r>
       <r>    -6.9870    13.2413    31.7610 </r>
       <r>    -6.8928    16.7315    33.3369 </r>
       <r>    -6.7986    31.7196    36.3245 </r>
       <r>    -6.7044    15.2651    37.7623 </r>
       <r>    -6.6102    18.3363    39.4894 </r>
       <r>    -6.5160    13.4913    40.7601 </r>
       <r>    -6.4218    24.3890    43.0573 </r>
       <r>    -6.3277    23.6346    45.2834 </r>
       <r>    -6.2335    18.7224    47.0469 </r>
       <r>    -6.1393    46.6690    51.4426 </r>
       <r>    -6.0451    21.0678    53.4269 </r>
       <r>    -5.9509    45.9199    57.7521 </r>
       <r>    -5.8567    21.1172    59.7411 </r>
       <r>    -5.7625    20.6516    61.6862 </r>
       <r>    -5.6683    59.7472    67.3138 </r>
       <r>    -5.5741    86.9904    75.5073 </r>
       <r>    -5.4800    73.9348    82.4711 </r>
       <r>    -5.3858    60.6381    88.1826 </r>
       <r>    -5.2916    95.2428    97.1534 </r>
       <r>    -5.1974    89.2092   105.5559 </r>
       <r>    -5.1032   107.9322   115.7219 </r>
       <r>    -5.0090   119.4945   126.9770 </r>
       <r>    -4.9148   145.3531   140.6676 </r>
       <r>    -4.8206   127.6109   152.6871 </r>
       <r>    -4.7264   126.6066   164.6121 </r>
       <r>    -4.6323   166.3662   180.2819 </r>
       <r>    -4.5381   204.7084   199.5632 </r>
       <r>    -4.4439   241.2369   222.2850 </r>
       <r>    -4.3497   284.5599   249.0874 </r>
       <r>    -4.2555   253.6148   272.9751 </r>
       <r>    -4.1613   219.6757   293.6661 </r>
       <r>    -4.0671   206.5260   313.1185 </r>
       <r>    -3.9729   219.6006   333.8025 </r>
       <r>    -3.8787   272.6684   359.4848 </r>
       <r>    -3.7846   278.8001   385.7447 </r>
       <r>    -3.6904   321.7997   416.0546 </r>
       <r>    -3.5962   318.4208   446.0463 </r>
       <r>    -3.5020   325.0352   476.6610 </r>
       <r>    -3.4078   393.1404   513.6905 </r>
       <r>    -3.3136   477.5791   558.6731 </r>
       <r>    -3.2194   505.9359   606.3267 </r>
       <r>    -3.1252   438.6693   647.6444 </r>
       <r>    -3.0310   452.0641   690.2238 </r>
       <r>    -2.9369   325.3230   720.8656 </r>
       <r>    -2.8427   362.8549   755.0425 </r>
       <r>    -2.7485   347.0468   787.7305 </r>
       <r>    -2.6543   410.3938   826.3850 </r>
       <r>    -2.5601   409.2292   864.9299 </r>
       <r>    -2.4659   389.3206   901.5995 </r>
       <r>    -2.3717   429.8183   942.0836 </r>
       <r>    -2.2775   419.6803   981.6129 </r>
       <r>    -2.1833   440.7839  1023.1298 </r>
       <r>    -2.0892   530.2562  1073.0740 </r>
       <r>    -1.9950   615.9979  1131.0942 </r>
       <r>    -1.9008   434.0009  1171.9722 </r>
       <r>    -1.8066   161.7362  1187.2060 </r>
       <r>    -1.7124    69.2828  1193.7317 </r>
       <r>    -1.6182    52.3039  1198.6581 </r>
       <r>    -1.5240    58.5703  1204.1748 </r>
       <r>    -1.4298    59.3845  1209.7681 </r>
       <r>    -1.3356    89.5808  1218.2057 </r>
       <r>    -1.2415    59.3755  1223.7982 </r>
       <r>    -1.1473    35.8357  1227.1735 </r>
       <r>    -1.0531    11.6344  1228.2693 </r>
       <r>    -0.9589    47.8817  1232.7792 </r>
       <r>    -0.8647    37.9652  1236.3551 </r>
       <r>    -0.7705    43.8868  1240.4888 </r>
       <r>    -0.6763    47.1434  1244.9292 </r>
       <r>    -0.5821    58.0534  1250.3972 </r>
       <r>    -0.4879    20.2581  1252.3052 </r>
       <r>    -0.3938    34.9907  1255.6010 </r>
       <r>    -0.2996    37.5214  1259.1351 </r>
       <r>    -0.2054    41.1118  1263.0074 </r>
       <r>    -0.1112    23.6887  1265.2386 </r>
       <r>    -0.0170    35.0819  1268.5429 </r>
       <r>     0.0772    48.6989  1273.1298 </r>
       <r>     0.1714    42.4408  1277.1272 </r>
       <r>     0.2656    12.9771  1278.3495 </r>
       <r>     0.3598    25.5747  1280.7584 </r>
       <r>     0.4539    43.3894  1284.8452 </r>
       <r>     0.5481    34.0031  1288.0479 </r>
       <r>     0.6423    28.5338  1290.7355 </r>
       <r>     0.7365    54.3585  1295.8554 </r>
       <r>     0.8307    35.2879  1299.1792 </r>
       <r>     0.9249    31.4511  1302.1415 </r>
       <r>     1.0191    29.1022  1304.8826 </r>
       <r>     1.1133    29.0381  1307.6177 </r>
       <r>     1.2075    47.1783  1312.0613 </r>
       <r>     1.3016    19.4768  1313.8958 </r>
       <r>     1.3958    20.3152  1315.8093 </r>
       <r>     1.4900    37.2549  1319.3183 </r>
       <r>     1.5842    32.1425  1322.3458 </r>
       <r>     1.6784    27.8268  1324.9667 </r>
       <r>     1.7726    20.4066  1326.8888 </r>
       <r>     1.8668    41.5993  1330.8070 </r>
       <r>     1.9610    37.1408  1334.3053 </r>
       <r>     2.0552    39.2800  1338.0050 </r>
       <r>     2.1493    24.7337  1340.3346 </r>
       <r>     2.2435    37.8477  1343.8995 </r>
       <r>     2.3377    24.6104  1346.2175 </r>
       <r>     2.4319    22.4602  1348.3330 </r>
       <r>     2.5261    14.7469  1349.7220 </r>
       <r>     2.6203    11.8393  1350.8371 </r>
       <r>     2.7145    19.6770  1352.6905 </r>
       <r>     2.8087    32.6187  1355.7628 </r>
       <r>     2.9029    28.1416  1358.4134 </r>
       <r>     2.9970    27.1087  1360.9668 </r>
       <r>     3.0912    19.3850  1362.7926 </r>
       <r>     3.1854    23.4169  1364.9982 </r>
       <r>     3.2796    21.0737  1366.9831 </r>
       <r>     3.3738     8.7253  1367.8050 </r>
       <r>     3.4680    30.6580  1370.6926 </r>
       <r>     3.5622    31.9170  1373.6988 </r>
       <r>     3.6564    27.8355  1376.3206 </r>
       <r>     3.7506     7.1151  1376.9908 </r>
       <r>     3.8447    21.7202  1379.0366 </r>
       <r>     3.9389    44.3613  1383.2149 </r>
       <r>     4.0331    32.6157  1386.2870 </r>
       <r>     4.1273    42.1207  1390.2543 </r>
       <r>     4.2215    50.9127  1395.0497 </r>
       <r>     4.3157    35.2373  1398.3687 </r>
       <r>     4.4099    18.4386  1400.1054 </r>
       <r>     4.5041    23.2033  1402.2909 </r>
       <r>     4.5983    31.4990  1405.2577 </r>
       <r>     4.6924    38.0572  1408.8423 </r>
       <r>     4.7866    40.9855  1412.7027 </r>
       <r>     4.8808    47.7497  1417.2002 </r>
       <r>     4.9750    38.0914  1420.7879 </r>
       <r>     5.0692    40.2046  1424.5748 </r>
       <r>     5.1634    37.0788  1428.0672 </r>
       <r>     5.2576    28.7292  1430.7731 </r>
       <r>     5.3518    59.4945  1436.3769 </r>
       <r>     5.4460    37.2997  1439.8901 </r>
       <r>     5.5401    54.2064  1444.9957 </r>
       <r>     5.6343    33.8158  1448.1808 </r>
       <r>     5.7285    34.1461  1451.3970 </r>
       <r>     5.8227    33.9882  1454.5983 </r>
       <r>     5.9169    33.0970  1457.7157 </r>
       <r>     6.0111    61.5416  1463.5122 </r>
       <r>     6.1053    54.3307  1468.6295 </r>
       <r>     6.1995    44.4923  1472.8202 </r>
       <r>     6.2937    40.3768  1476.6233 </r>
       <r>     6.3878    36.4389  1480.0554 </r>
       <r>     6.4820    51.2637  1484.8839 </r>
       <r>     6.5762    42.8904  1488.9237 </r>
       <r>     6.6704    35.2468  1492.2435 </r>
       <r>     6.7646    37.1899  1495.7464 </r>
       <r>     6.8588    59.3497  1501.3365 </r>
       <r>     6.9530    48.8904  1505.9414 </r>
       <r>     7.0472    36.7577  1509.4036 </r>
       <r>     7.1414    26.6532  1511.9140 </r>
       <r>     7.2355     0.9127  1512.0000 </r>
       <r>     7.3297     0.0001  1512.0000 </r>
       <r>     7.4239     0.0000  1512.0000 </r>
       <r>     7.5181     0.0000  1512.0000 </r>
       <r>     7.6123     0.0000  1512.0000 </r>
       <r>     7.7065     0.0000  1512.0000 </r>
       <r>     7.8007     0.0000  1512.0000 </r>
       <r>     7.8949     0.0000  1512.0000 </r>
       <r>     7.9891     0.0000  1512.0000 </r>
       <r>     8.0832     0.0000  1512.0000 </r>
       <r>     8.1774     0.0000  1512.0000 </r>
       <r>     8.2716     0.0000  1512.0000 </r>
       <r>     8.3658     0.0000  1512.0000 </r>
      </set>
     </set>
    </array>
   </total>
  </dos>
 </calculation>
 <structure name="finalpos" >
  <crystal>
   <varray name="basis" >
    <v>      10.28518105       0.00000000       0.00000000 </v>
    <v>       5.14259052       8.90722807       0.00000000 </v>
    <v>       0.00000000       0.00000000      27.79016876 </v>
   </varray>
   <i name="volume">   2545.92553775 </i>
   <varray name="rec_basis" >
    <v>       0.09722726      -0.05613419       0.00000000 </v>
    <v>       0.00000000       0.11226837       0.00000000 </v>
    <v>       0.00000000       0.00000000       0.03598395 </v>
   </varray>
  </crystal>
  <varray name="positions" >
   <v>       0.00000000       0.00000000       0.22663990 </v>
   <v>       0.00000000       0.50000000       0.22663990 </v>
   <v>       0.50000000       0.00000000       0.22663990 </v>
   <v>       0.50000000       0.50000000       0.22663990 </v>
   <v>       0.00000000       0.25000000       0.22663990 </v>
   <v>       0.00000000       0.75000000       0.22663990 </v>
   <v>       0.50000000       0.25000000       0.22663990 </v>
   <v>       0.50000000       0.75000000       0.22663990 </v>
   <v>       0.25000000       0.00000000       0.22663990 </v>
   <v>       0.25000000       0.50000000       0.22663990 </v>
   <v>       0.75000000       0.00000000       0.22663990 </v>
   <v>       0.75000000       0.50000000       0.22663990 </v>
   <v>       0.25000000       0.25000000       0.22663990 </v>
   <v>       0.25000000       0.75000000       0.22663990 </v>
   <v>       0.75000000       0.25000000       0.22663990 </v>
   <v>       0.75000000       0.75000000       0.22663990 </v>
   <v>       0.16666666       0.16666666       0.30218653 </v>
   <v>       0.16666666       0.66666666       0.30218653 </v>
   <v>       0.66666666       0.16666666       0.30218653 </v>
   <v>       0.66666666       0.66666666       0.30218653 </v>
   <v>       0.16666666       0.41666666       0.30218653 </v>
   <v>       0.16666666       0.91666666       0.30218653 </v>
   <v>       0.66666666       0.41666666       0.30218653 </v>
   <v>       0.66666666       0.91666666       0.30218653 </v>
   <v>       0.41666666       0.16666666       0.30218653 </v>
   <v>       0.41666666       0.66666666       0.30218653 </v>
   <v>       0.91666666       0.16666666       0.30218653 </v>
   <v>       0.91666666       0.66666666       0.30218653 </v>
   <v>       0.41666666       0.41666666       0.30218653 </v>
   <v>       0.41666666       0.91666666       0.30218653 </v>
   <v>       0.91666666       0.41666666       0.30218653 </v>
   <v>       0.91666666       0.91666666       0.30218653 </v>
   <v>       0.08333333       0.08333333       0.37716320 </v>
   <v>       0.08333333       0.58333333       0.37716320 </v>
   <v>       0.58333333       0.08333333       0.37716320 </v>
   <v>       0.58333333       0.58333333       0.37716320 </v>
   <v>       0.08351614       0.33324190       0.37729758 </v>
   <v>       0.08351614       0.83324190       0.37729758 </v>
   <v>       0.58351614       0.33324190       0.37729758 </v>
   <v>       0.58351614       0.83324190       0.37729758 </v>
   <v>       0.33324190       0.08351614       0.37729758 </v>
   <v>       0.33324190       0.58351614       0.37729758 </v>
   <v>       0.83324190       0.08351614       0.37729758 </v>
   <v>       0.83324190       0.58351614       0.37729758 </v>
   <v>       0.33324190       0.33324190       0.37729758 </v>
   <v>       0.33324190       0.83324190       0.37729758 </v>
   <v>       0.83324190       0.33324190       0.37729758 </v>
   <v>       0.83324190       0.83324190       0.37729758 </v>
   <v>       0.00012997       0.00012997       0.45242342 </v>
   <v>       0.00012997       0.50012997       0.45242342 </v>
   <v>       0.50012997       0.00012997       0.45242342 </v>
   <v>       0.50012997       0.50012997       0.45242342 </v>
   <v>       0.00012997       0.24974005       0.45242342 </v>
   <v>       0.00012997       0.74974005       0.45242342 </v>
   <v>       0.50012997       0.24974005       0.45242342 </v>
   <v>       0.50012997       0.74974005       0.45242342 </v>
   <v>       0.24974005       0.00012997       0.45242342 </v>
   <v>       0.24974005       0.50012997       0.45242342 </v>
   <v>       0.74974005       0.00012997       0.45242342 </v>
   <v>       0.74974005       0.50012997       0.45242342 </v>
   <v>       0.25000000       0.25000000       0.45288750 </v>
   <v>       0.25000000       0.75000000       0.45288750 </v>
   <v>       0.75000000       0.25000000       0.45288750 </v>
   <v>       0.75000000       0.75000000       0.45288750 </v>
   <v>       0.16660598       0.16660598       0.52813907 </v>
   <v>       0.16660598       0.66660598       0.52813907 </v>
   <v>       0.66660598       0.16660598       0.52813907 </v>
   <v>       0.66660598       0.66660598       0.52813907 </v>
   <v>       0.16660598       0.41678801       0.52813907 </v>
   <v>       0.16660598       0.91678801       0.52813907 </v>
   <v>       0.66660598       0.41678801       0.52813907 </v>
   <v>       0.66660598       0.91678801       0.52813907 </v>
   <v>       0.41678801       0.16660598       0.52813907 </v>
   <v>       0.41678801       0.66660598       0.52813907 </v>
   <v>       0.91678801       0.16660598       0.52813907 </v>
   <v>       0.91678801       0.66660598       0.52813907 </v>
   <v>       0.41804166       0.41666666       0.52792828 </v>
   <v>       0.41666666       0.91666666       0.52741939 </v>
   <v>       0.91666666       0.41666666       0.52741939 </v>
   <v>       0.91666666       0.91666666       0.52741939 </v>
   <v>       0.08333333       0.08333333       0.60253339 </v>
   <v>       0.08333333       0.58333333       0.60253339 </v>
   <v>       0.58333333       0.08333333       0.60253339 </v>
   <v>       0.58333333       0.58333333       0.60253339 </v>
   <v>       0.08130935       0.33434529       0.60320464 </v>
   <v>       0.08130935       0.83434529       0.60320464 </v>
   <v>       0.58130935       0.33434529       0.60320464 </v>
   <v>       0.58130935       0.83434529       0.60320464 </v>
   <v>       0.33434529       0.08130935       0.60320464 </v>
   <v>       0.33434529       0.58130935       0.60320464 </v>
   <v>       0.83434529       0.08130935       0.60320464 </v>
   <v>       0.83434529       0.58130935       0.60320464 </v>
   <v>       0.33434529       0.33434529       0.60320464 </v>
   <v>       0.33434529       0.83434529       0.60320464 </v>
   <v>       0.83434529       0.33434529       0.60320464 </v>
   <v>       0.83434529       0.83434529       0.60320464 </v>
   <v>       0.49714648       0.49714648       0.68057248 </v>
   <v>       0.49714648       0.99714648       0.68057248 </v>
   <v>       0.99714648       0.49714648       0.68057248 </v>
   <v>       0.99714648       0.99714648       0.68057248 </v>
   <v>       0.49714648       0.25570704       0.68057248 </v>
   <v>       0.49714648       0.75570704       0.68057248 </v>
   <v>       0.99714648       0.25570704       0.68057248 </v>
   <v>       0.99714648       0.75570704       0.68057248 </v>
   <v>       0.25570704       0.49714648       0.68057248 </v>
   <v>       0.25570704       0.99714648       0.68057248 </v>
   <v>       0.75570704       0.49714648       0.68057248 </v>
   <v>       0.75570704       0.99714648       0.68057248 </v>
   <v>       0.25000000       0.25000000       0.67480871 </v>
   <v>       0.25000000       0.75000000       0.67480871 </v>
   <v>       0.75000000       0.25000000       0.67480871 </v>
   <v>       0.75000000       0.75000000       0.67480871 </v>
   <v>       0.08333333       0.08333333       0.72043888 </v>
   <v>       0.08333333       0.58333333       0.72043888 </v>
   <v>       0.58333333       0.08333333       0.72043888 </v>
   <v>       0.58333333       0.58333333       0.72043888 </v>
  </varray>
 </structure>
</modeling>
