<?xml version="1.0" encoding="ISO-8859-1"?>
<modeling>
 <generator>
  <i name="program" type="string">vasp </i>
  <i name="version" type="string">5.4.4.18Apr17-6-g9f103f2a35  </i>
  <i name="subversion" type="string">(build Feb 09 2021 16:27:36) complex            parallel </i>
  <i name="platform" type="string">IFC15_impi </i>
  <i name="date" type="string">2021 04 29 </i>
  <i name="time" type="string">03:14:22 </i>
 </generator>
 <incar>
  <i type="int" name="ISTART">     0</i>
  <i type="string" name="PREC">a</i>
  <i type="logical" name="ADDGRID"> T  </i>
  <i type="int" name="NELM">   300</i>
  <i type="int" name="NELMIN">     5</i>
  <i type="int" name="IBRION">    -1</i>
  <i name="EDIFF">      0.00000100</i>
  <i name="ENCUT">    500.00000000</i>
  <i type="logical" name="LREAL"> F  </i>
  <i type="int" name="ISMEAR">     0</i>
  <i name="SIGMA">      0.05000000</i>
  <i type="logical" name="LWAVE"> F  </i>
  <i type="logical" name="LCHARG"> F  </i>
  <v type="int" name="KPOINT_BSE">    -1     0     0     0</v>
  <i type="int" name="NELM">   300</i>
 </incar>
 <structure name="primitive_cell" >
  <crystal>
   <varray name="basis" >
    <v>      10.28518105       0.00000000       0.00000000 </v>
    <v>       5.14259052       8.90722807       0.00000000 </v>
    <v>       0.00000000       0.00000000      27.79016876 </v>
   </varray>
   <i name="volume">   2545.92553775 </i>
   <varray name="rec_basis" >
    <v>       0.09722726      -0.05613419       0.00000000 </v>
    <v>       0.00000000       0.11226837       0.00000000 </v>
    <v>       0.00000000       0.00000000       0.03598395 </v>
   </varray>
  </crystal>
  <varray name="positions" >
   <v>       0.00000000       0.00000000       0.22663990 </v>
   <v>       0.16666666      -0.08333334       0.30218653 </v>
   <v>      -0.08333334       0.16666666       0.30218653 </v>
   <v>       0.25000000       0.00000000       0.22663990 </v>
   <v>       0.00000000      -0.25000000       0.22663990 </v>
   <v>       0.25000000      -0.25000000       0.22663990 </v>
   <v>      -0.25000000       0.25000000       0.22663990 </v>
   <v>       0.00000000       0.25000000       0.22663990 </v>
   <v>      -0.25000000       0.00000000       0.22663990 </v>
   <v>      -0.08333334      -0.08333334       0.30218653 </v>
   <v>       0.16666666       0.16666666       0.30218653 </v>
   <v>       0.16666666      -0.33333334       0.30218653 </v>
   <v>      -0.33333334       0.16666666       0.30218653 </v>
   <v>       0.08333333       0.08333333       0.37716320 </v>
   <v>       0.08351614      -0.16675810       0.37729758 </v>
   <v>      -0.16675810       0.08351614       0.37729758 </v>
   <v>       0.41666666      -0.08333334       0.30218653 </v>
   <v>      -0.08333334       0.41666666       0.30218653 </v>
   <v>      -0.33333334       0.41666666       0.30218653 </v>
   <v>       0.41666666      -0.33333334       0.30218653 </v>
   <v>      -0.50000000       0.25000000       0.22663990 </v>
   <v>       0.25000000       0.25000000       0.22663990 </v>
   <v>       0.25000000      -0.50000000       0.22663990 </v>
   <v>      -0.25000000      -0.50000000       0.22663990 </v>
   <v>      -0.25000000      -0.25000000       0.22663990 </v>
   <v>      -0.50000000      -0.25000000       0.22663990 </v>
   <v>      -0.08333334      -0.33333334       0.30218653 </v>
   <v>      -0.33333334      -0.08333334       0.30218653 </v>
   <v>       0.33324190      -0.16675810       0.37729758 </v>
   <v>      -0.16675810       0.33324190       0.37729758 </v>
   <v>      -0.16675810      -0.16675810       0.37729758 </v>
   <v>       0.00000000      -0.50000000       0.22663990 </v>
   <v>      -0.50000000      -0.50000000       0.22663990 </v>
   <v>      -0.50000000       0.00000000       0.22663990 </v>
   <v>      -0.41666667       0.08333333       0.37716320 </v>
   <v>       0.08333333      -0.41666667       0.37716320 </v>
   <v>       0.33324190      -0.41648386       0.37729758 </v>
   <v>      -0.41648386       0.33324190       0.37729758 </v>
   <v>       0.33324190       0.08351614       0.37729758 </v>
   <v>       0.08351614       0.33324190       0.37729758 </v>
   <v>       0.16666666       0.41666666       0.30218653 </v>
   <v>       0.41666666       0.16666666       0.30218653 </v>
   <v>       0.41666666       0.41666666       0.30218653 </v>
   <v>       0.00012997       0.00012997       0.45242342 </v>
   <v>      -0.33333334      -0.33333334       0.30218653 </v>
   <v>       0.00012997       0.24974005       0.45242342 </v>
   <v>       0.24974005       0.00012997       0.45242342 </v>
   <v>      -0.25025995       0.00012997       0.45242342 </v>
   <v>       0.00012997      -0.25025995       0.45242342 </v>
   <v>       0.25000000      -0.25000000       0.45288750 </v>
   <v>      -0.25000000       0.25000000       0.45288750 </v>
   <v>      -0.41666667      -0.41666667       0.37716320 </v>
   <v>      -0.41648386      -0.16675810       0.37729758 </v>
   <v>      -0.16675810      -0.41648386       0.37729758 </v>
   <v>       0.33324190       0.33324190       0.37729758 </v>
   <v>       0.24974005      -0.49987003       0.45242342 </v>
   <v>      -0.49987003       0.24974005       0.45242342 </v>
   <v>      -0.49987003      -0.25025995       0.45242342 </v>
   <v>      -0.25025995      -0.49987003       0.45242342 </v>
   <v>       0.25000000       0.25000000       0.45288750 </v>
   <v>      -0.25000000      -0.25000000       0.45288750 </v>
   <v>       0.00012997      -0.49987003       0.45242342 </v>
   <v>      -0.49987003       0.00012997       0.45242342 </v>
   <v>      -0.49987003      -0.49987003       0.45242342 </v>
   <v>      -0.08333334      -0.08333334      -0.47258061 </v>
   <v>      -0.08321199       0.16660598      -0.47186093 </v>
   <v>       0.16660598      -0.08321199      -0.47186093 </v>
   <v>      -0.33339402       0.16660598      -0.47186093 </v>
   <v>       0.16660598      -0.33339402      -0.47186093 </v>
   <v>       0.16798098       0.16660598      -0.47135205 </v>
   <v>       0.41666666      -0.08333334      -0.47258061 </v>
   <v>      -0.08333334       0.41666666      -0.47258061 </v>
   <v>      -0.33339402      -0.08321199      -0.47186093 </v>
   <v>      -0.08321199      -0.33339402      -0.47186093 </v>
   <v>      -0.33339402       0.41678801      -0.47186093 </v>
   <v>       0.41678801      -0.33339402      -0.47186093 </v>
   <v>       0.41666666       0.41666666      -0.47258061 </v>
   <v>       0.16660598       0.41678801      -0.47186093 </v>
   <v>       0.41678801       0.16660598      -0.47186093 </v>
   <v>      -0.33339402      -0.33339402      -0.47186093 </v>
   <v>       0.08333333       0.08333333      -0.39746661 </v>
   <v>      -0.16565471       0.08130935      -0.39679536 </v>
   <v>       0.08130935      -0.16565471      -0.39679536 </v>
   <v>      -0.16565471      -0.16565471      -0.39679536 </v>
   <v>      -0.16565471       0.33434529      -0.39679536 </v>
   <v>       0.33434529      -0.16565471      -0.39679536 </v>
   <v>      -0.41666667       0.08333333      -0.39746661 </v>
   <v>       0.08333333      -0.41666667      -0.39746661 </v>
   <v>       0.08130935       0.33434529      -0.39679536 </v>
   <v>       0.33434529       0.08130935      -0.39679536 </v>
   <v>       0.33434529      -0.41869065      -0.39679536 </v>
   <v>      -0.41869065       0.33434529      -0.39679536 </v>
   <v>      -0.41666667      -0.41666667      -0.39746661 </v>
   <v>      -0.41869065      -0.16565471      -0.39679536 </v>
   <v>      -0.16565471      -0.41869065      -0.39679536 </v>
   <v>       0.33434529       0.33434529      -0.39679536 </v>
   <v>      -0.00285352      -0.00285352      -0.31942752 </v>
   <v>       0.25000000      -0.25000000      -0.32519129 </v>
   <v>      -0.25000000       0.25000000      -0.32519129 </v>
   <v>      -0.24429296      -0.00285352      -0.31942752 </v>
   <v>      -0.00285352      -0.24429296      -0.31942752 </v>
   <v>      -0.00285352       0.25570704      -0.31942752 </v>
   <v>       0.25570704      -0.00285352      -0.31942752 </v>
   <v>       0.25000000       0.25000000      -0.32519129 </v>
   <v>      -0.25000000      -0.25000000      -0.32519129 </v>
   <v>       0.49714648      -0.24429296      -0.31942752 </v>
   <v>      -0.24429296       0.49714648      -0.31942752 </v>
   <v>       0.25570704       0.49714648      -0.31942752 </v>
   <v>       0.49714648       0.25570704      -0.31942752 </v>
   <v>      -0.00285352       0.49714648      -0.31942752 </v>
   <v>       0.49714648      -0.00285352      -0.31942752 </v>
   <v>       0.49714648       0.49714648      -0.31942752 </v>
   <v>       0.08333333       0.08333333      -0.27956112 </v>
   <v>      -0.41666667       0.08333333      -0.27956112 </v>
   <v>       0.08333333      -0.41666667      -0.27956112 </v>
   <v>      -0.41666667      -0.41666667      -0.27956112 </v>
  </varray>
 </structure>
 <varray name="primitive_index" >
  <v type="int" >        1 </v>
  <v type="int" >       22 </v>
  <v type="int" >       27 </v>
  <v type="int" >        9 </v>
  <v type="int" >        6 </v>
  <v type="int" >       14 </v>
  <v type="int" >       15 </v>
  <v type="int" >        5 </v>
  <v type="int" >       11 </v>
  <v type="int" >       32 </v>
  <v type="int" >       17 </v>
  <v type="int" >       18 </v>
  <v type="int" >       19 </v>
  <v type="int" >       33 </v>
  <v type="int" >       38 </v>
  <v type="int" >       43 </v>
  <v type="int" >       30 </v>
  <v type="int" >       31 </v>
  <v type="int" >       23 </v>
  <v type="int" >       26 </v>
  <v type="int" >        7 </v>
  <v type="int" >       13 </v>
  <v type="int" >       10 </v>
  <v type="int" >       12 </v>
  <v type="int" >       16 </v>
  <v type="int" >        8 </v>
  <v type="int" >       28 </v>
  <v type="int" >       24 </v>
  <v type="int" >       46 </v>
  <v type="int" >       47 </v>
  <v type="int" >       48 </v>
  <v type="int" >        2 </v>
  <v type="int" >        4 </v>
  <v type="int" >        3 </v>
  <v type="int" >       35 </v>
  <v type="int" >       34 </v>
  <v type="int" >       42 </v>
  <v type="int" >       39 </v>
  <v type="int" >       41 </v>
  <v type="int" >       37 </v>
  <v type="int" >       21 </v>
  <v type="int" >       25 </v>
  <v type="int" >       29 </v>
  <v type="int" >       49 </v>
  <v type="int" >       20 </v>
  <v type="int" >       53 </v>
  <v type="int" >       57 </v>
  <v type="int" >       59 </v>
  <v type="int" >       54 </v>
  <v type="int" >       62 </v>
  <v type="int" >       63 </v>
  <v type="int" >       36 </v>
  <v type="int" >       40 </v>
  <v type="int" >       44 </v>
  <v type="int" >       45 </v>
  <v type="int" >       58 </v>
  <v type="int" >       55 </v>
  <v type="int" >       56 </v>
  <v type="int" >       60 </v>
  <v type="int" >       61 </v>
  <v type="int" >       64 </v>
  <v type="int" >       50 </v>
  <v type="int" >       51 </v>
  <v type="int" >       52 </v>
  <v type="int" >       80 </v>
  <v type="int" >       75 </v>
  <v type="int" >       70 </v>
  <v type="int" >       67 </v>
  <v type="int" >       66 </v>
  <v type="int" >       65 </v>
  <v type="int" >       78 </v>
  <v type="int" >       79 </v>
  <v type="int" >       72 </v>
  <v type="int" >       76 </v>
  <v type="int" >       71 </v>
  <v type="int" >       74 </v>
  <v type="int" >       77 </v>
  <v type="int" >       69 </v>
  <v type="int" >       73 </v>
  <v type="int" >       68 </v>
  <v type="int" >       81 </v>
  <v type="int" >       91 </v>
  <v type="int" >       86 </v>
  <v type="int" >       96 </v>
  <v type="int" >       95 </v>
  <v type="int" >       94 </v>
  <v type="int" >       83 </v>
  <v type="int" >       82 </v>
  <v type="int" >       85 </v>
  <v type="int" >       89 </v>
  <v type="int" >       90 </v>
  <v type="int" >       87 </v>
  <v type="int" >       84 </v>
  <v type="int" >       88 </v>
  <v type="int" >       92 </v>
  <v type="int" >       93 </v>
  <v type="int" >      100 </v>
  <v type="int" >      110 </v>
  <v type="int" >      111 </v>
  <v type="int" >      108 </v>
  <v type="int" >      104 </v>
  <v type="int" >      103 </v>
  <v type="int" >      106 </v>
  <v type="int" >      109 </v>
  <v type="int" >      112 </v>
  <v type="int" >      102 </v>
  <v type="int" >      107 </v>
  <v type="int" >      105 </v>
  <v type="int" >      101 </v>
  <v type="int" >       99 </v>
  <v type="int" >       98 </v>
  <v type="int" >       97 </v>
  <v type="int" >      113 </v>
  <v type="int" >      115 </v>
  <v type="int" >      114 </v>
  <v type="int" >      116 </v>
 </varray>
 <kpoints>
  <generation param="Gamma">
   <v type="int" name="divisions">       4        4        1 </v>
   <v name="usershift">      0.00000000       0.00000000       0.00000000 </v>
   <v name="genvec1">      0.25000000      -0.00000000       0.00000000 </v>
   <v name="genvec2">      0.00000000       0.25000000       0.00000000 </v>
   <v name="genvec3">      0.00000000       0.00000000       1.00000000 </v>
   <v name="shift">      0.00000000       0.00000000       0.00000000 </v>
  </generation>
  <varray name="kpointlist" >
   <v>       0.00000000       0.00000000       0.00000000 </v>
   <v>       0.25000000      -0.00000000       0.00000000 </v>
   <v>       0.50000000      -0.00000000       0.00000000 </v>
   <v>       0.00000000       0.25000000       0.00000000 </v>
   <v>       0.25000000       0.25000000       0.00000000 </v>
   <v>       0.50000000       0.25000000       0.00000000 </v>
   <v>      -0.25000000       0.25000000       0.00000000 </v>
   <v>       0.00000000       0.50000000       0.00000000 </v>
   <v>       0.25000000       0.50000000       0.00000000 </v>
   <v>       0.50000000       0.50000000       0.00000000 </v>
  </varray>
  <varray name="weights" >
   <v>       0.06250000 </v>
   <v>       0.12500000 </v>
   <v>       0.06250000 </v>
   <v>       0.12500000 </v>
   <v>       0.12500000 </v>
   <v>       0.12500000 </v>
   <v>       0.12500000 </v>
   <v>       0.06250000 </v>
   <v>       0.12500000 </v>
   <v>       0.06250000 </v>
  </varray>
 </kpoints>
 <parameters>
  <separator name="general" >
   <i type="string" name="SYSTEM">unknown system</i>
   <i type="logical" name="LCOMPAT"> F  </i>
  </separator>
  <separator name="electronic" >
   <i type="string" name="PREC">a</i>
   <i name="ENMAX">    500.00000000</i>
   <i name="ENAUG">    605.39200000</i>
   <i name="EDIFF">      0.00000100</i>
   <i type="int" name="IALGO">    38</i>
   <i type="int" name="IWAVPR">    10</i>
   <i type="int" name="NBANDS">   756</i>
   <i name="NELECT">   1256.00000000</i>
   <i type="int" name="TURBO">     0</i>
   <i type="int" name="IRESTART">     0</i>
   <i type="int" name="NREBOOT">     0</i>
   <i type="int" name="NMIN">     0</i>
   <i name="EREF">      0.00000000</i>
   <separator name="electronic smearing" >
    <i type="int" name="ISMEAR">     0</i>
    <i name="SIGMA">      0.05000000</i>
    <i name="KSPACING">      0.50000000</i>
    <i type="logical" name="KGAMMA"> T  </i>
   </separator>
   <separator name="electronic projectors" >
    <i type="logical" name="LREAL"> F  </i>
    <v name="ROPT">      0.00000000      0.00000000</v>
    <i type="int" name="LMAXPAW">  -100</i>
    <i type="int" name="LMAXMIX">     2</i>
    <i type="logical" name="NLSPLINE"> F  </i>
   </separator>
   <separator name="electronic startup" >
    <i type="int" name="ISTART">     0</i>
    <i type="int" name="ICHARG">     2</i>
    <i type="int" name="INIWAV">     1</i>
   </separator>
   <separator name="electronic spin" >
    <i type="int" name="ISPIN">     1</i>
    <i type="logical" name="LNONCOLLINEAR"> F  </i>
    <v name="MAGMOM">      1.00000000      1.00000000      1.00000000      1.00000000      1.00000000      1.00000000      1.00000000      1.00000000      1.00000000      1.00000000      1.00000000      1.00000000      1.00000000      1.00000000      1.00000000      1.00000000      1.00000000      1.00000000      1.00000000      1.00000000
      1.00000000      1.00000000      1.00000000      1.00000000      1.00000000      1.00000000      1.00000000      1.00000000      1.00000000      1.00000000      1.00000000      1.00000000      1.00000000      1.00000000      1.00000000      1.00000000      1.00000000      1.00000000      1.00000000      1.00000000
      1.00000000      1.00000000      1.00000000      1.00000000      1.00000000      1.00000000      1.00000000      1.00000000      1.00000000      1.00000000      1.00000000      1.00000000      1.00000000      1.00000000      1.00000000      1.00000000      1.00000000      1.00000000      1.00000000      1.00000000
      1.00000000      1.00000000      1.00000000      1.00000000      1.00000000      1.00000000      1.00000000      1.00000000      1.00000000      1.00000000      1.00000000      1.00000000      1.00000000      1.00000000      1.00000000      1.00000000      1.00000000      1.00000000      1.00000000      1.00000000
      1.00000000      1.00000000      1.00000000      1.00000000      1.00000000      1.00000000      1.00000000      1.00000000      1.00000000      1.00000000      1.00000000      1.00000000      1.00000000      1.00000000      1.00000000      1.00000000      1.00000000      1.00000000      1.00000000      1.00000000
      1.00000000      1.00000000      1.00000000      1.00000000      1.00000000      1.00000000      1.00000000      1.00000000      1.00000000      1.00000000      1.00000000      1.00000000      1.00000000      1.00000000      1.00000000      1.00000000</v>
    <i name="NUPDOWN">     -1.00000000</i>
    <i type="logical" name="LSORBIT"> F  </i>
    <v name="SAXIS">      0.00000000      0.00000000      1.00000000</v>
    <i type="logical" name="LSPIRAL"> F  </i>
    <v name="QSPIRAL">      0.00000000      0.00000000      0.00000000</v>
    <i type="logical" name="LZEROZ"> F  </i>
   </separator>
   <separator name="electronic exchange-correlation" >
    <i type="logical" name="LASPH"> F  </i>
    <i type="logical" name="LMETAGGA"> F  </i>
   </separator>
   <separator name="electronic convergence" >
    <i type="int" name="NELM">   300</i>
    <i type="int" name="NELMDL">    -5</i>
    <i type="int" name="NELMIN">     5</i>
    <i name="ENINI">    500.00000000</i>
    <separator name="electronic convergence detail" >
     <i type="logical" name="LDIAG"> T  </i>
     <i type="logical" name="LSUBROT"> F  </i>
     <i name="WEIMIN">      0.00000000</i>
     <i name="EBREAK">      0.00000000</i>
     <i name="DEPER">      0.30000000</i>
     <i type="int" name="NRMM">     4</i>
     <i name="TIME">      0.40000000</i>
    </separator>
   </separator>
   <separator name="electronic mixer" >
    <i name="AMIX">      0.40000000</i>
    <i name="BMIX">      1.00000000</i>
    <i name="AMIN">      0.10000000</i>
    <i name="AMIX_MAG">      1.60000000</i>
    <i name="BMIX_MAG">      1.00000000</i>
    <separator name="electronic mixer details" >
     <i type="int" name="IMIX">     4</i>
     <i type="logical" name="MIXFIRST"> F  </i>
     <i type="int" name="MAXMIX">   -45</i>
     <i name="WC">    100.00000000</i>
     <i type="int" name="INIMIX">     1</i>
     <i type="int" name="MIXPRE">     1</i>
     <i type="int" name="MREMOVE">     5</i>
    </separator>
   </separator>
   <separator name="electronic dipolcorrection" >
    <i type="logical" name="LDIPOL"> F  </i>
    <i type="logical" name="LMONO"> F  </i>
    <i type="int" name="IDIPOL">     0</i>
    <i name="EPSILON">      1.00000000</i>
    <v name="DIPOL">   -100.00000000   -100.00000000   -100.00000000</v>
    <i name="EFIELD">      0.00000000</i>
   </separator>
  </separator>
  <separator name="grids" >
   <i type="int" name="NGX">    80</i>
   <i type="int" name="NGY">    80</i>
   <i type="int" name="NGZ">   210</i>
   <i type="int" name="NGXF">   160</i>
   <i type="int" name="NGYF">   160</i>
   <i type="int" name="NGZF">   420</i>
   <i type="logical" name="ADDGRID"> T  </i>
  </separator>
  <separator name="ionic" >
   <i type="int" name="NSW">     0</i>
   <i type="int" name="IBRION">    -1</i>
   <i type="int" name="MDALGO">     0</i>
   <i type="int" name="ISIF">     2</i>
   <i name="PSTRESS">      0.00000000</i>
   <i name="EDIFFG">      0.00001000</i>
   <i type="int" name="NFREE">     0</i>
   <i name="POTIM">      0.50000000</i>
   <i name="SMASS">     -3.00000000</i>
   <i name="SCALEE">      1.00000000</i>
  </separator>
  <separator name="ionic md" >
   <i name="TEBEG">      0.00010000</i>
   <i name="TEEND">      0.00010000</i>
   <i type="int" name="NBLOCK">     1</i>
   <i type="int" name="KBLOCK">     1</i>
   <i type="int" name="NPACO">   256</i>
   <i name="APACO">     16.00000000</i>
  </separator>
  <separator name="symmetry" >
   <i type="int" name="ISYM">     2</i>
   <i name="SYMPREC">      0.00001000</i>
  </separator>
  <separator name="dos" >
   <i type="int" name="LORBIT">     0</i>
   <v name="RWIGS">     -1.00000000     -1.00000000</v>
   <i type="int" name="NEDOS">   301</i>
   <i name="EMIN">     10.00000000</i>
   <i name="EMAX">    -10.00000000</i>
   <i name="EFERMI">      0.00000000</i>
  </separator>
  <separator name="writing" >
   <i type="int" name="NWRITE">     2</i>
   <i type="logical" name="LWAVE"> F  </i>
   <i type="logical" name="LDOWNSAMPLE"> F  </i>
   <i type="logical" name="LCHARG"> F  </i>
   <i type="logical" name="LPARD"> F  </i>
   <i type="logical" name="LVTOT"> F  </i>
   <i type="logical" name="LVHAR"> F  </i>
   <i type="logical" name="LELF"> F  </i>
   <i type="logical" name="LOPTICS"> F  </i>
   <v name="STM">      0.00000000      0.00000000      0.00000000      0.00000000      0.00000000      0.00000000      0.00000000</v>
  </separator>
  <separator name="performance" >
   <i type="int" name="NPAR">     4</i>
   <i type="int" name="NSIM">     4</i>
   <i type="int" name="NBLK">    -1</i>
   <i type="logical" name="LPLANE"> T  </i>
   <i type="logical" name="LSCALAPACK"> F  </i>
   <i type="logical" name="LSCAAWARE"> F  </i>
   <i type="logical" name="LSCALU"> F  </i>
   <i type="logical" name="LASYNC"> F  </i>
   <i type="logical" name="LORBITALREAL"> F  </i>
  </separator>
  <separator name="miscellaneous" >
   <i type="int" name="IDIOT">     3</i>
   <i type="int" name="ISPECIAL">     0</i>
   <i type="logical" name="LMUSIC"> F  </i>
   <v name="POMASS">     63.54600000     16.00000000</v>
   <v name="DARWINR">      0.00000000      0.00000000</v>
   <v name="DARWINV">      1.00000000      1.00000000</v>
   <i type="logical" name="LCORR"> T  </i>
  </separator>
  <i type="logical" name="GGA_COMPAT"> T  </i>
  <i type="logical" name="LBERRY"> F  </i>
  <i type="int" name="ICORELEVEL">     0</i>
  <i type="logical" name="LDAU"> F  </i>
  <i type="int" name="I_CONSTRAINED_M">     0</i>
  <separator name="electronic exchange-correlation" >
   <i type="string" name="GGA">--</i>
   <i type="int" name="VOSKOWN">     0</i>
   <i type="logical" name="LHFCALC"> F  </i>
   <i type="string" name="PRECFOCK"></i>
   <i type="logical" name="LSYMGRAD"> F  </i>
   <i type="logical" name="LHFONE"> F  </i>
   <i type="logical" name="LRHFCALC"> F  </i>
   <i type="logical" name="LTHOMAS"> F  </i>
   <i type="logical" name="LMODELHF"> F  </i>
   <i name="ENCUT4O">     -1.00000000</i>
   <i type="int" name="EXXOEP">     0</i>
   <i type="int" name="FOURORBIT">     0</i>
   <i name="AEXX">      0.00000000</i>
   <i name="HFALPHA">      0.00000000</i>
   <i name="MCALPHA">      0.00000000</i>
   <i name="ALDAX">      1.00000000</i>
   <i name="AGGAX">      1.00000000</i>
   <i name="ALDAC">      1.00000000</i>
   <i name="AGGAC">      1.00000000</i>
   <i type="int" name="NKREDX">     1</i>
   <i type="int" name="NKREDY">     1</i>
   <i type="int" name="NKREDZ">     1</i>
   <i type="logical" name="SHIFTRED"> F  </i>
   <i type="logical" name="ODDONLY"> F  </i>
   <i type="logical" name="EVENONLY"> F  </i>
   <i type="int" name="LMAXFOCK">     0</i>
   <i type="int" name="NMAXFOCKAE">     0</i>
   <i type="logical" name="LFOCKAEDFT"> F  </i>
   <i name="HFSCREEN">      0.00000000</i>
   <i name="HFSCREENC">      0.00000000</i>
   <i type="int" name="NBANDSGWLOW">     0</i>
  </separator>
  <separator name="vdW DFT" >
   <i type="logical" name="LUSE_VDW"> F  </i>
   <i name="Zab_VDW">     -0.84910000</i>
   <i name="PARAM1">      0.12340000</i>
   <i name="PARAM2">      1.00000000</i>
   <i name="PARAM3">      0.00000000</i>
  </separator>
  <separator name="model GW" >
   <i type="int" name="MODEL_GW">     0</i>
   <i name="MODEL_EPS0">     13.16858037</i>
   <i name="MODEL_ALPHA">      1.00000000</i>
  </separator>
  <separator name="linear response parameters" >
   <i type="logical" name="LEPSILON"> F  </i>
   <i type="logical" name="LRPA"> F  </i>
   <i type="logical" name="LNABLA"> F  </i>
   <i type="logical" name="LVEL"> F  </i>
   <i type="int" name="KINTER">     0</i>
   <i name="CSHIFT">      0.10000000</i>
   <i name="OMEGAMAX">     -1.00000000</i>
   <i name="DEG_THRESHOLD">      0.00200000</i>
   <i name="RTIME">     -0.10000000</i>
   <i name="WPLASMAI">      0.00000000</i>
   <v name="DFIELD">      0.00000000      0.00000000      0.00000000</v>
   <v name="WPLASMA">      0.00000000      0.00000000      0.00000000      0.00000000      0.00000000      0.00000000      0.00000000      0.00000000      0.00000000</v>
  </separator>
  <separator name="orbital magnetization" >
   <i type="logical" name="NUCIND"> F  </i>
   <v name="MAGPOS">      0.00000000      0.00000000      0.00000000</v>
   <i type="logical" name="LNICSALL"> T  </i>
   <i type="logical" name="ORBITALMAG"> F  </i>
   <i type="logical" name="LMAGBLOCH"> F  </i>
   <i type="logical" name="LCHIMAG"> F  </i>
   <i type="logical" name="LGAUGE"> T  </i>
   <i type="int" name="MAGATOM">     0</i>
   <v name="MAGDIPOL">      0.00000000      0.00000000      0.00000000</v>
   <v name="AVECCONST">      0.00000000      0.00000000      0.00000000</v>
  </separator>
  <separator name="response functions" >
   <i type="logical" name="LADDER"> F  </i>
   <i type="logical" name="LRPAFORCE"> F  </i>
   <i type="logical" name="LFXC"> F  </i>
   <i type="logical" name="LHARTREE"> T  </i>
   <i type="int" name="IBSE">     0</i>
   <v type="int" name="KPOINT">    -1     0     0     0</v>
   <i type="logical" name="LTCTE"> F  </i>
   <i type="logical" name="LTETE"> F  </i>
   <i type="logical" name="LTRIPLET"> F  </i>
   <i type="logical" name="LFXCEPS"> F  </i>
   <i type="logical" name="LFXHEG"> F  </i>
   <i type="int" name="NATURALO">     2</i>
   <i type="logical" name="L2ORDER"> F  </i>
   <i type="logical" name="LMP2LT"> F  </i>
   <i type="logical" name="LUSEW"> F  </i>
   <i name="ENCUTGW">     -2.00000000</i>
   <i name="ENCUTGWSOFT">     -2.00000000</i>
   <i name="ENCUTLF">     -1.00000000</i>
   <i type="int" name="LMAXMP2">    -1</i>
   <i name="SCISSOR">      0.00000000</i>
   <i type="int" name="NOMEGA">     0</i>
   <i type="int" name="NOMEGAR">     0</i>
   <i type="int" name="NBANDSGW">    -1</i>
   <i type="int" name="NBANDSO">    -1</i>
   <i type="int" name="NBANDSV">    -1</i>
   <i type="int" name="NELM">   300</i>
   <i type="int" name="NELMHF">     1</i>
   <i type="int" name="DIM">     3</i>
   <i type="int" name="ANTIRES">     0</i>
   <i name="OMEGAMAX">    -30.00000000</i>
   <i name="OMEGAMIN">    -30.00000000</i>
   <i name="OMEGATL">   -200.00000000</i>
   <i type="int" name="OMEGAGRID">   140</i>
   <i name="CSHIFT">     -0.10000000</i>
   <i type="logical" name="SELFENERGY"> F  </i>
   <i type="logical" name="LSPECTRAL"> F  </i>
   <i type="logical" name="LSPECTRALGW"> F  </i>
   <i type="logical" name="LSINGLES"> F  </i>
   <i type="logical" name="LFERMIGW"> F  </i>
   <i type="logical" name="ODDONLYGW"> F  </i>
   <i type="logical" name="EVENONLYGW"> F  </i>
   <i type="int" name="NKREDLFX">     1</i>
   <i type="int" name="NKREDLFY">     1</i>
   <i type="int" name="NKREDLFZ">     1</i>
   <i type="int" name="MAXMEM">  2800</i>
   <i type="int" name="TELESCOPE">     0</i>
   <i type="int" name="TAUPAR">     1</i>
   <i type="int" name="OMEGAPAR">    -1</i>
   <i name="LAMBDA">      1.00000000</i>
  </separator>
  <separator name="External order field" >
   <i name="OFIELD_KAPPA">      0.00000000</i>
   <v name="OFIELD_K">      0.00000000      0.00000000      0.00000000</v>
   <i name="OFIELD_Q6_NEAR">      0.00000000</i>
   <i name="OFIELD_Q6_FAR">      0.00000000</i>
   <i name="OFIELD_A">      0.00000000</i>
  </separator>
 </parameters>
 <atominfo>
  <atoms>     116 </atoms>
  <types>       2 </types>
  <array name="atoms" >
   <dimension dim="1">ion</dimension>
   <field type="string">element</field>
   <field type="int">atomtype</field>
   <set>
    <rc><c>Cu</c><c>   1</c></rc>
    <rc><c>Cu</c><c>   1</c></rc>
    <rc><c>Cu</c><c>   1</c></rc>
    <rc><c>Cu</c><c>   1</c></rc>
    <rc><c>Cu</c><c>   1</c></rc>
    <rc><c>Cu</c><c>   1</c></rc>
    <rc><c>Cu</c><c>   1</c></rc>
    <rc><c>Cu</c><c>   1</c></rc>
    <rc><c>Cu</c><c>   1</c></rc>
    <rc><c>Cu</c><c>   1</c></rc>
    <rc><c>Cu</c><c>   1</c></rc>
    <rc><c>Cu</c><c>   1</c></rc>
    <rc><c>Cu</c><c>   1</c></rc>
    <rc><c>Cu</c><c>   1</c></rc>
    <rc><c>Cu</c><c>   1</c></rc>
    <rc><c>Cu</c><c>   1</c></rc>
    <rc><c>Cu</c><c>   1</c></rc>
    <rc><c>Cu</c><c>   1</c></rc>
    <rc><c>Cu</c><c>   1</c></rc>
    <rc><c>Cu</c><c>   1</c></rc>
    <rc><c>Cu</c><c>   1</c></rc>
    <rc><c>Cu</c><c>   1</c></rc>
    <rc><c>Cu</c><c>   1</c></rc>
    <rc><c>Cu</c><c>   1</c></rc>
    <rc><c>Cu</c><c>   1</c></rc>
    <rc><c>Cu</c><c>   1</c></rc>
    <rc><c>Cu</c><c>   1</c></rc>
    <rc><c>Cu</c><c>   1</c></rc>
    <rc><c>Cu</c><c>   1</c></rc>
    <rc><c>Cu</c><c>   1</c></rc>
    <rc><c>Cu</c><c>   1</c></rc>
    <rc><c>Cu</c><c>   1</c></rc>
    <rc><c>Cu</c><c>   1</c></rc>
    <rc><c>Cu</c><c>   1</c></rc>
    <rc><c>Cu</c><c>   1</c></rc>
    <rc><c>Cu</c><c>   1</c></rc>
    <rc><c>Cu</c><c>   1</c></rc>
    <rc><c>Cu</c><c>   1</c></rc>
    <rc><c>Cu</c><c>   1</c></rc>
    <rc><c>Cu</c><c>   1</c></rc>
    <rc><c>Cu</c><c>   1</c></rc>
    <rc><c>Cu</c><c>   1</c></rc>
    <rc><c>Cu</c><c>   1</c></rc>
    <rc><c>Cu</c><c>   1</c></rc>
    <rc><c>Cu</c><c>   1</c></rc>
    <rc><c>Cu</c><c>   1</c></rc>
    <rc><c>Cu</c><c>   1</c></rc>
    <rc><c>Cu</c><c>   1</c></rc>
    <rc><c>Cu</c><c>   1</c></rc>
    <rc><c>Cu</c><c>   1</c></rc>
    <rc><c>Cu</c><c>   1</c></rc>
    <rc><c>Cu</c><c>   1</c></rc>
    <rc><c>Cu</c><c>   1</c></rc>
    <rc><c>Cu</c><c>   1</c></rc>
    <rc><c>Cu</c><c>   1</c></rc>
    <rc><c>Cu</c><c>   1</c></rc>
    <rc><c>Cu</c><c>   1</c></rc>
    <rc><c>Cu</c><c>   1</c></rc>
    <rc><c>Cu</c><c>   1</c></rc>
    <rc><c>Cu</c><c>   1</c></rc>
    <rc><c>Cu</c><c>   1</c></rc>
    <rc><c>Cu</c><c>   1</c></rc>
    <rc><c>Cu</c><c>   1</c></rc>
    <rc><c>Cu</c><c>   1</c></rc>
    <rc><c>Cu</c><c>   1</c></rc>
    <rc><c>Cu</c><c>   1</c></rc>
    <rc><c>Cu</c><c>   1</c></rc>
    <rc><c>Cu</c><c>   1</c></rc>
    <rc><c>Cu</c><c>   1</c></rc>
    <rc><c>Cu</c><c>   1</c></rc>
    <rc><c>Cu</c><c>   1</c></rc>
    <rc><c>Cu</c><c>   1</c></rc>
    <rc><c>Cu</c><c>   1</c></rc>
    <rc><c>Cu</c><c>   1</c></rc>
    <rc><c>Cu</c><c>   1</c></rc>
    <rc><c>Cu</c><c>   1</c></rc>
    <rc><c>Cu</c><c>   1</c></rc>
    <rc><c>Cu</c><c>   1</c></rc>
    <rc><c>Cu</c><c>   1</c></rc>
    <rc><c>Cu</c><c>   1</c></rc>
    <rc><c>Cu</c><c>   1</c></rc>
    <rc><c>Cu</c><c>   1</c></rc>
    <rc><c>Cu</c><c>   1</c></rc>
    <rc><c>Cu</c><c>   1</c></rc>
    <rc><c>Cu</c><c>   1</c></rc>
    <rc><c>Cu</c><c>   1</c></rc>
    <rc><c>Cu</c><c>   1</c></rc>
    <rc><c>Cu</c><c>   1</c></rc>
    <rc><c>Cu</c><c>   1</c></rc>
    <rc><c>Cu</c><c>   1</c></rc>
    <rc><c>Cu</c><c>   1</c></rc>
    <rc><c>Cu</c><c>   1</c></rc>
    <rc><c>Cu</c><c>   1</c></rc>
    <rc><c>Cu</c><c>   1</c></rc>
    <rc><c>Cu</c><c>   1</c></rc>
    <rc><c>Cu</c><c>   1</c></rc>
    <rc><c>Cu</c><c>   1</c></rc>
    <rc><c>Cu</c><c>   1</c></rc>
    <rc><c>Cu</c><c>   1</c></rc>
    <rc><c>Cu</c><c>   1</c></rc>
    <rc><c>Cu</c><c>   1</c></rc>
    <rc><c>Cu</c><c>   1</c></rc>
    <rc><c>Cu</c><c>   1</c></rc>
    <rc><c>Cu</c><c>   1</c></rc>
    <rc><c>Cu</c><c>   1</c></rc>
    <rc><c>Cu</c><c>   1</c></rc>
    <rc><c>Cu</c><c>   1</c></rc>
    <rc><c>Cu</c><c>   1</c></rc>
    <rc><c>Cu</c><c>   1</c></rc>
    <rc><c>Cu</c><c>   1</c></rc>
    <rc><c>Cu</c><c>   1</c></rc>
    <rc><c>Cu</c><c>   1</c></rc>
    <rc><c>O </c><c>   2</c></rc>
    <rc><c>O </c><c>   2</c></rc>
    <rc><c>O </c><c>   2</c></rc>
    <rc><c>O </c><c>   2</c></rc>
   </set>
  </array>
  <array name="atomtypes" >
   <dimension dim="1">type</dimension>
   <field type="int">atomspertype</field>
   <field type="string">element</field>
   <field>mass</field>
   <field>valence</field>
   <field type="string">pseudopotential</field>
   <set>
    <rc><c> 112</c><c>Cu</c><c>     63.54600000</c><c>     11.00000000</c><c> PAW_PBE Cu 05Jan2001                   </c></rc>
    <rc><c>   4</c><c>O </c><c>     16.00000000</c><c>      6.00000000</c><c> PAW_PBE O 08Apr2002                    </c></rc>
   </set>
  </array>
 </atominfo>
 <structure name="initialpos" >
  <crystal>
   <varray name="basis" >
    <v>      10.28518105       0.00000000       0.00000000 </v>
    <v>       5.14259052       8.90722807       0.00000000 </v>
    <v>       0.00000000       0.00000000      27.79016876 </v>
   </varray>
   <i name="volume">   2545.92553775 </i>
   <varray name="rec_basis" >
    <v>       0.09722726      -0.05613419       0.00000000 </v>
    <v>       0.00000000       0.11226837       0.00000000 </v>
    <v>       0.00000000       0.00000000       0.03598395 </v>
   </varray>
  </crystal>
  <varray name="positions" >
   <v>       0.00000000       0.00000000       0.22663990 </v>
   <v>       0.00000000       0.50000000       0.22663990 </v>
   <v>       0.50000000       0.00000000       0.22663990 </v>
   <v>       0.50000000       0.50000000       0.22663990 </v>
   <v>       0.00000000       0.25000000       0.22663990 </v>
   <v>       0.00000000       0.75000000       0.22663990 </v>
   <v>       0.50000000       0.25000000       0.22663990 </v>
   <v>       0.50000000       0.75000000       0.22663990 </v>
   <v>       0.25000000       0.00000000       0.22663990 </v>
   <v>       0.25000000       0.50000000       0.22663990 </v>
   <v>       0.75000000       0.00000000       0.22663990 </v>
   <v>       0.75000000       0.50000000       0.22663990 </v>
   <v>       0.25000000       0.25000000       0.22663990 </v>
   <v>       0.25000000       0.75000000       0.22663990 </v>
   <v>       0.75000000       0.25000000       0.22663990 </v>
   <v>       0.75000000       0.75000000       0.22663990 </v>
   <v>       0.16666666       0.16666666       0.30218653 </v>
   <v>       0.16666666       0.66666666       0.30218653 </v>
   <v>       0.66666666       0.16666666       0.30218653 </v>
   <v>       0.66666666       0.66666666       0.30218653 </v>
   <v>       0.16666666       0.41666666       0.30218653 </v>
   <v>       0.16666666       0.91666666       0.30218653 </v>
   <v>       0.66666666       0.41666666       0.30218653 </v>
   <v>       0.66666666       0.91666666       0.30218653 </v>
   <v>       0.41666666       0.16666666       0.30218653 </v>
   <v>       0.41666666       0.66666666       0.30218653 </v>
   <v>       0.91666666       0.16666666       0.30218653 </v>
   <v>       0.91666666       0.66666666       0.30218653 </v>
   <v>       0.41666666       0.41666666       0.30218653 </v>
   <v>       0.41666666       0.91666666       0.30218653 </v>
   <v>       0.91666666       0.41666666       0.30218653 </v>
   <v>       0.91666666       0.91666666       0.30218653 </v>
   <v>       0.08333333       0.08333333       0.37716320 </v>
   <v>       0.08333333       0.58333333       0.37716320 </v>
   <v>       0.58333333       0.08333333       0.37716320 </v>
   <v>       0.58333333       0.58333333       0.37716320 </v>
   <v>       0.08351614       0.33324190       0.37729758 </v>
   <v>       0.08351614       0.83324190       0.37729758 </v>
   <v>       0.58351614       0.33324190       0.37729758 </v>
   <v>       0.58351614       0.83324190       0.37729758 </v>
   <v>       0.33324190       0.08351614       0.37729758 </v>
   <v>       0.33324190       0.58351614       0.37729758 </v>
   <v>       0.83324190       0.08351614       0.37729758 </v>
   <v>       0.83324190       0.58351614       0.37729758 </v>
   <v>       0.33324190       0.33324190       0.37729758 </v>
   <v>       0.33324190       0.83324190       0.37729758 </v>
   <v>       0.83324190       0.33324190       0.37729758 </v>
   <v>       0.83324190       0.83324190       0.37729758 </v>
   <v>       0.00012997       0.00012997       0.45242342 </v>
   <v>       0.00012997       0.50012997       0.45242342 </v>
   <v>       0.50012997       0.00012997       0.45242342 </v>
   <v>       0.50012997       0.50012997       0.45242342 </v>
   <v>       0.00012997       0.24974005       0.45242342 </v>
   <v>       0.00012997       0.74974005       0.45242342 </v>
   <v>       0.50012997       0.24974005       0.45242342 </v>
   <v>       0.50012997       0.74974005       0.45242342 </v>
   <v>       0.24974005       0.00012997       0.45242342 </v>
   <v>       0.24974005       0.50012997       0.45242342 </v>
   <v>       0.74974005       0.00012997       0.45242342 </v>
   <v>       0.74974005       0.50012997       0.45242342 </v>
   <v>       0.25000000       0.25000000       0.45288750 </v>
   <v>       0.25000000       0.75000000       0.45288750 </v>
   <v>       0.75000000       0.25000000       0.45288750 </v>
   <v>       0.75000000       0.75000000       0.45288750 </v>
   <v>       0.16798098       0.16660598       0.52864795 </v>
   <v>       0.16660598       0.66660598       0.52813907 </v>
   <v>       0.66660598       0.16660598       0.52813907 </v>
   <v>       0.66660598       0.66660598       0.52813907 </v>
   <v>       0.16660598       0.41678801       0.52813907 </v>
   <v>       0.16660598       0.91678801       0.52813907 </v>
   <v>       0.66660598       0.41678801       0.52813907 </v>
   <v>       0.66660598       0.91678801       0.52813907 </v>
   <v>       0.41678801       0.16660598       0.52813907 </v>
   <v>       0.41678801       0.66660598       0.52813907 </v>
   <v>       0.91678801       0.16660598       0.52813907 </v>
   <v>       0.91678801       0.66660598       0.52813907 </v>
   <v>       0.41666666       0.41666666       0.52741939 </v>
   <v>       0.41666666       0.91666666       0.52741939 </v>
   <v>       0.91666666       0.41666666       0.52741939 </v>
   <v>       0.91666666       0.91666666       0.52741939 </v>
   <v>       0.08333333       0.08333333       0.60253339 </v>
   <v>       0.08333333       0.58333333       0.60253339 </v>
   <v>       0.58333333       0.08333333       0.60253339 </v>
   <v>       0.58333333       0.58333333       0.60253339 </v>
   <v>       0.08130935       0.33434529       0.60320464 </v>
   <v>       0.08130935       0.83434529       0.60320464 </v>
   <v>       0.58130935       0.33434529       0.60320464 </v>
   <v>       0.58130935       0.83434529       0.60320464 </v>
   <v>       0.33434529       0.08130935       0.60320464 </v>
   <v>       0.33434529       0.58130935       0.60320464 </v>
   <v>       0.83434529       0.08130935       0.60320464 </v>
   <v>       0.83434529       0.58130935       0.60320464 </v>
   <v>       0.33434529       0.33434529       0.60320464 </v>
   <v>       0.33434529       0.83434529       0.60320464 </v>
   <v>       0.83434529       0.33434529       0.60320464 </v>
   <v>       0.83434529       0.83434529       0.60320464 </v>
   <v>       0.49714648       0.49714648       0.68057248 </v>
   <v>       0.49714648       0.99714648       0.68057248 </v>
   <v>       0.99714648       0.49714648       0.68057248 </v>
   <v>       0.99714648       0.99714648       0.68057248 </v>
   <v>       0.49714648       0.25570704       0.68057248 </v>
   <v>       0.49714648       0.75570704       0.68057248 </v>
   <v>       0.99714648       0.25570704       0.68057248 </v>
   <v>       0.99714648       0.75570704       0.68057248 </v>
   <v>       0.25570704       0.49714648       0.68057248 </v>
   <v>       0.25570704       0.99714648       0.68057248 </v>
   <v>       0.75570704       0.49714648       0.68057248 </v>
   <v>       0.75570704       0.99714648       0.68057248 </v>
   <v>       0.25000000       0.25000000       0.67480871 </v>
   <v>       0.25000000       0.75000000       0.67480871 </v>
   <v>       0.75000000       0.25000000       0.67480871 </v>
   <v>       0.75000000       0.75000000       0.67480871 </v>
   <v>       0.08333333       0.08333333       0.72043888 </v>
   <v>       0.08333333       0.58333333       0.72043888 </v>
   <v>       0.58333333       0.08333333       0.72043888 </v>
   <v>       0.58333333       0.58333333       0.72043888 </v>
  </varray>
 </structure>
 <calculation>
  <scstep>
   <time name="dav">  165.53  167.33</time>
   <time name="total">  166.12  167.94</time>
   <energy>
    <i name="alphaZ">   6463.29446255 </i>
    <i name="ewald"> 664560.17589965 </i>
    <i name="hartreedc">-815315.06303278 </i>
    <i name="XCdc">   5009.43453633 </i>
    <i name="pawpsdc"> 122173.85035501 </i>
    <i name="pawaedc">-138312.01710912 </i>
    <i name="eentropy">     -0.03022280 </i>
    <i name="bandstr">   8852.82127872 </i>
    <i name="atom"> 157518.83071590 </i>
    <i name="e_fr_energy">  10951.29688346 </i>
    <i name="e_wo_entrp">  10951.32710626 </i>
    <i name="e_0_energy">  10951.31199486 </i>
   </energy>
  </scstep>
  <scstep>
   <time name="dav">  167.51  167.78</time>
   <time name="total">  167.53  167.80</time>
   <energy>
    <i name="e_fr_energy">   1074.11490653 </i>
    <i name="e_wo_entrp">   1074.15672840 </i>
    <i name="e_0_energy">   1074.13581747 </i>
   </energy>
  </scstep>
  <scstep>
   <time name="dav">  167.23  168.80</time>
   <time name="total">  167.26  168.82</time>
   <energy>
    <i name="e_fr_energy">   -373.58860698 </i>
    <i name="e_wo_entrp">   -373.52268042 </i>
    <i name="e_0_energy">   -373.55564370 </i>
   </energy>
  </scstep>
  <scstep>
   <time name="dav">  172.24  172.71</time>
   <time name="total">  172.26  172.74</time>
   <energy>
    <i name="e_fr_energy">   -524.81598808 </i>
    <i name="e_wo_entrp">   -524.75256818 </i>
    <i name="e_0_energy">   -524.78427813 </i>
   </energy>
  </scstep>
  <scstep>
   <time name="dav">  159.29  160.45</time>
   <time name="total">  163.91  165.16</time>
   <energy>
    <i name="e_fr_energy">   -530.86751406 </i>
    <i name="e_wo_entrp">   -530.80412891 </i>
    <i name="e_0_energy">   -530.83582148 </i>
   </energy>
  </scstep>
  <scstep>
   <time name="dav">  161.43  162.39</time>
   <time name="total">  166.48  167.55</time>
   <energy>
    <i name="e_fr_energy">   -478.08258025 </i>
    <i name="e_wo_entrp">   -478.02620999 </i>
    <i name="e_0_energy">   -478.05439512 </i>
   </energy>
  </scstep>
  <scstep>
   <time name="dav">  173.21  174.40</time>
   <time name="total">  178.21  179.45</time>
   <energy>
    <i name="e_fr_energy">   -511.40983148 </i>
    <i name="e_wo_entrp">   -511.28755138 </i>
    <i name="e_0_energy">   -511.34869143 </i>
   </energy>
  </scstep>
  <scstep>
   <time name="dav">  199.34  199.86</time>
   <time name="total">  204.34  204.91</time>
   <energy>
    <i name="e_fr_energy">   -444.88820259 </i>
    <i name="e_wo_entrp">   -444.80457577 </i>
    <i name="e_0_energy">   -444.84638918 </i>
   </energy>
  </scstep>
  <scstep>
   <time name="dav">  202.11  203.54</time>
   <time name="total">  207.08  208.56</time>
   <energy>
    <i name="e_fr_energy">   -428.53183569 </i>
    <i name="e_wo_entrp">   -428.49278805 </i>
    <i name="e_0_energy">   -428.51231187 </i>
   </energy>
  </scstep>
  <scstep>
   <time name="dav">  174.12  174.70</time>
   <time name="total">  179.62  180.28</time>
   <energy>
    <i name="e_fr_energy">   -429.30271470 </i>
    <i name="e_wo_entrp">   -429.24936354 </i>
    <i name="e_0_energy">   -429.27603912 </i>
   </energy>
  </scstep>
  <scstep>
   <time name="dav">  173.09  174.76</time>
   <time name="total">  178.08  179.81</time>
   <energy>
    <i name="e_fr_energy">   -427.93443290 </i>
    <i name="e_wo_entrp">   -427.86794437 </i>
    <i name="e_0_energy">   -427.90118863 </i>
   </energy>
  </scstep>
  <scstep>
   <time name="dav">  177.43  178.95</time>
   <time name="total">  182.40  183.96</time>
   <energy>
    <i name="e_fr_energy">   -427.70087685 </i>
    <i name="e_wo_entrp">   -427.64604325 </i>
    <i name="e_0_energy">   -427.67346005 </i>
   </energy>
  </scstep>
  <scstep>
   <time name="dav">  166.47  168.12</time>
   <time name="total">  171.40  173.13</time>
   <energy>
    <i name="e_fr_energy">   -427.64646310 </i>
    <i name="e_wo_entrp">   -427.59180131 </i>
    <i name="e_0_energy">   -427.61913221 </i>
   </energy>
  </scstep>
  <scstep>
   <time name="dav">  174.37  175.54</time>
   <time name="total">  179.29  180.55</time>
   <energy>
    <i name="e_fr_energy">   -427.54159137 </i>
    <i name="e_wo_entrp">   -427.49244620 </i>
    <i name="e_0_energy">   -427.51701878 </i>
   </energy>
  </scstep>
  <scstep>
   <time name="dav">  177.25  177.89</time>
   <time name="total">  182.65  183.34</time>
   <energy>
    <i name="e_fr_energy">   -427.61239232 </i>
    <i name="e_wo_entrp">   -427.56398737 </i>
    <i name="e_0_energy">   -427.58818984 </i>
   </energy>
  </scstep>
  <scstep>
   <time name="dav">  170.83  171.69</time>
   <time name="total">  175.82  177.49</time>
   <energy>
    <i name="e_fr_energy">   -427.51313201 </i>
    <i name="e_wo_entrp">   -427.46358876 </i>
    <i name="e_0_energy">   -427.48836039 </i>
   </energy>
  </scstep>
  <scstep>
   <time name="dav">  173.41  173.65</time>
   <time name="total">  178.41  178.66</time>
   <energy>
    <i name="e_fr_energy">   -427.47909954 </i>
    <i name="e_wo_entrp">   -427.42798193 </i>
    <i name="e_0_energy">   -427.45354073 </i>
   </energy>
  </scstep>
  <scstep>
   <time name="dav">  185.81  186.75</time>
   <time name="total">  190.82  191.77</time>
   <energy>
    <i name="e_fr_energy">   -427.46515074 </i>
    <i name="e_wo_entrp">   -427.41269907 </i>
    <i name="e_0_energy">   -427.43892490 </i>
   </energy>
  </scstep>
  <scstep>
   <time name="dav">  166.62  167.32</time>
   <time name="total">  171.56  172.29</time>
   <energy>
    <i name="e_fr_energy">   -427.46501819 </i>
    <i name="e_wo_entrp">   -427.41200384 </i>
    <i name="e_0_energy">   -427.43851102 </i>
   </energy>
  </scstep>
  <scstep>
   <time name="dav">  158.57  159.99</time>
   <time name="total">  163.50  164.98</time>
   <energy>
    <i name="e_fr_energy">   -427.46549425 </i>
    <i name="e_wo_entrp">   -427.41228779 </i>
    <i name="e_0_energy">   -427.43889102 </i>
   </energy>
  </scstep>
  <scstep>
   <time name="dav">  155.02  155.75</time>
   <time name="total">  159.96  160.73</time>
   <energy>
    <i name="e_fr_energy">   -427.46593371 </i>
    <i name="e_wo_entrp">   -427.41243476 </i>
    <i name="e_0_energy">   -427.43918424 </i>
   </energy>
  </scstep>
  <scstep>
   <time name="dav">  166.35  168.11</time>
   <time name="total">  171.27  173.11</time>
   <energy>
    <i name="e_fr_energy">   -427.46596417 </i>
    <i name="e_wo_entrp">   -427.41271635 </i>
    <i name="e_0_energy">   -427.43934026 </i>
   </energy>
  </scstep>
  <scstep>
   <time name="dav">  166.29  167.64</time>
   <time name="total">  173.13  174.49</time>
   <energy>
    <i name="e_fr_energy">   -427.46598771 </i>
    <i name="e_wo_entrp">   -427.41277107 </i>
    <i name="e_0_energy">   -427.43937939 </i>
   </energy>
  </scstep>
  <scstep>
   <time name="dav">  159.41  160.71</time>
   <time name="total">  165.16  166.53</time>
   <energy>
    <i name="e_fr_energy">   -427.46612364 </i>
    <i name="e_wo_entrp">   -427.41289777 </i>
    <i name="e_0_energy">   -427.43951070 </i>
   </energy>
  </scstep>
  <scstep>
   <time name="dav">  170.21  171.92</time>
   <time name="total">  175.14  176.91</time>
   <energy>
    <i name="e_fr_energy">   -427.46627649 </i>
    <i name="e_wo_entrp">   -427.41308851 </i>
    <i name="e_0_energy">   -427.43968250 </i>
   </energy>
  </scstep>
  <scstep>
   <time name="dav">  175.71  177.53</time>
   <time name="total">  180.63  182.53</time>
   <energy>
    <i name="e_fr_energy">   -427.46652463 </i>
    <i name="e_wo_entrp">   -427.41333549 </i>
    <i name="e_0_energy">   -427.43993006 </i>
   </energy>
  </scstep>
  <scstep>
   <time name="dav">  152.04  153.19</time>
   <time name="total">  157.02  158.17</time>
   <energy>
    <i name="e_fr_energy">   -427.46679014 </i>
    <i name="e_wo_entrp">   -427.41360469 </i>
    <i name="e_0_energy">   -427.44019741 </i>
   </energy>
  </scstep>
  <scstep>
   <time name="dav">  155.89  156.13</time>
   <time name="total">  160.87  161.11</time>
   <energy>
    <i name="e_fr_energy">   -427.46696815 </i>
    <i name="e_wo_entrp">   -427.41379630 </i>
    <i name="e_0_energy">   -427.44038222 </i>
   </energy>
  </scstep>
  <scstep>
   <time name="dav">  192.96  194.63</time>
   <time name="total">  197.98  199.65</time>
   <energy>
    <i name="e_fr_energy">   -427.46709305 </i>
    <i name="e_wo_entrp">   -427.41393456 </i>
    <i name="e_0_energy">   -427.44051380 </i>
   </energy>
  </scstep>
  <scstep>
   <time name="dav">  153.95  154.46</time>
   <time name="total">  158.93  159.48</time>
   <energy>
    <i name="e_fr_energy">   -427.46720869 </i>
    <i name="e_wo_entrp">   -427.41405196 </i>
    <i name="e_0_energy">   -427.44063032 </i>
   </energy>
  </scstep>
  <scstep>
   <time name="dav">  149.63  150.11</time>
   <time name="total">  155.22  155.71</time>
   <energy>
    <i name="e_fr_energy">   -427.46728804 </i>
    <i name="e_wo_entrp">   -427.41412071 </i>
    <i name="e_0_energy">   -427.44070438 </i>
   </energy>
  </scstep>
  <scstep>
   <time name="dav">  158.36  160.03</time>
   <time name="total">  163.49  165.23</time>
   <energy>
    <i name="e_fr_energy">   -427.46735405 </i>
    <i name="e_wo_entrp">   -427.41417086 </i>
    <i name="e_0_energy">   -427.44076246 </i>
   </energy>
  </scstep>
  <scstep>
   <time name="dav">  122.30  123.19</time>
   <time name="total">  127.28  128.20</time>
   <energy>
    <i name="e_fr_energy">   -427.46738149 </i>
    <i name="e_wo_entrp">   -427.41419614 </i>
    <i name="e_0_energy">   -427.44078881 </i>
   </energy>
  </scstep>
  <scstep>
   <time name="dav">  114.38  115.51</time>
   <time name="total">  119.96  121.10</time>
   <energy>
    <i name="e_fr_energy">   -427.46739638 </i>
    <i name="e_wo_entrp">   -427.41421379 </i>
    <i name="e_0_energy">   -427.44080509 </i>
   </energy>
  </scstep>
  <scstep>
   <time name="dav">  117.30  117.43</time>
   <time name="total">  122.32  122.45</time>
   <energy>
    <i name="e_fr_energy">   -427.46742123 </i>
    <i name="e_wo_entrp">   -427.41424743 </i>
    <i name="e_0_energy">   -427.44083433 </i>
   </energy>
  </scstep>
  <scstep>
   <time name="dav">  112.44  113.04</time>
   <time name="total">  117.47  118.11</time>
   <energy>
    <i name="e_fr_energy">   -427.46742835 </i>
    <i name="e_wo_entrp">   -427.41425617 </i>
    <i name="e_0_energy">   -427.44084226 </i>
   </energy>
  </scstep>
  <scstep>
   <time name="dav">  111.04  112.18</time>
   <time name="total">  116.00  117.21</time>
   <energy>
    <i name="e_fr_energy">   -427.46743654 </i>
    <i name="e_wo_entrp">   -427.41426234 </i>
    <i name="e_0_energy">   -427.44084944 </i>
   </energy>
  </scstep>
  <scstep>
   <time name="dav">  115.08  116.33</time>
   <time name="total">  120.05  121.34</time>
   <energy>
    <i name="e_fr_energy">   -427.46743961 </i>
    <i name="e_wo_entrp">   -427.41426491 </i>
    <i name="e_0_energy">   -427.44085226 </i>
   </energy>
  </scstep>
  <scstep>
   <time name="dav">  105.77  106.69</time>
   <time name="total">  110.80  111.72</time>
   <energy>
    <i name="e_fr_energy">   -427.46744113 </i>
    <i name="e_wo_entrp">   -427.41426628 </i>
    <i name="e_0_energy">   -427.44085371 </i>
   </energy>
  </scstep>
  <scstep>
   <time name="dav">  108.28  108.59</time>
   <time name="total">  113.28  113.60</time>
   <energy>
    <i name="e_fr_energy">   -427.46744236 </i>
    <i name="e_wo_entrp">   -427.41426692 </i>
    <i name="e_0_energy">   -427.44085464 </i>
   </energy>
  </scstep>
  <scstep>
   <time name="dav">  109.76  109.91</time>
   <time name="total">  110.25  110.40</time>
   <energy>
    <i name="alphaZ">   6463.29446255 </i>
    <i name="ewald"> 664560.17589965 </i>
    <i name="hartreedc">-813351.15241915 </i>
    <i name="XCdc">   4896.83254578 </i>
    <i name="pawpsdc"> 123760.05954962 </i>
    <i name="pawaedc">-139977.12395187 </i>
    <i name="eentropy">     -0.05317553 </i>
    <i name="bandstr">  -4298.33106989 </i>
    <i name="atom"> 157518.83071590 </i>
    <i name="e_fr_energy">   -427.46744293 </i>
    <i name="e_wo_entrp">   -427.41426740 </i>
    <i name="e_0_energy">   -427.44085516 </i>
   </energy>
  </scstep>
  <structure>
   <crystal>
    <varray name="basis" >
     <v>      10.28518105       0.00000000       0.00000000 </v>
     <v>       5.14259052       8.90722807       0.00000000 </v>
     <v>       0.00000000       0.00000000      27.79016876 </v>
    </varray>
    <i name="volume">   2545.92553775 </i>
    <varray name="rec_basis" >
     <v>       0.09722726      -0.05613419       0.00000000 </v>
     <v>       0.00000000       0.11226837       0.00000000 </v>
     <v>       0.00000000       0.00000000       0.03598395 </v>
    </varray>
   </crystal>
   <varray name="positions" >
    <v>       0.00000000       0.00000000       0.22663990 </v>
    <v>       0.00000000       0.50000000       0.22663990 </v>
    <v>       0.50000000       0.00000000       0.22663990 </v>
    <v>       0.50000000       0.50000000       0.22663990 </v>
    <v>       0.00000000       0.25000000       0.22663990 </v>
    <v>       0.00000000       0.75000000       0.22663990 </v>
    <v>       0.50000000       0.25000000       0.22663990 </v>
    <v>       0.50000000       0.75000000       0.22663990 </v>
    <v>       0.25000000       0.00000000       0.22663990 </v>
    <v>       0.25000000       0.50000000       0.22663990 </v>
    <v>       0.75000000       0.00000000       0.22663990 </v>
    <v>       0.75000000       0.50000000       0.22663990 </v>
    <v>       0.25000000       0.25000000       0.22663990 </v>
    <v>       0.25000000       0.75000000       0.22663990 </v>
    <v>       0.75000000       0.25000000       0.22663990 </v>
    <v>       0.75000000       0.75000000       0.22663990 </v>
    <v>       0.16666666       0.16666666       0.30218653 </v>
    <v>       0.16666666       0.66666666       0.30218653 </v>
    <v>       0.66666666       0.16666666       0.30218653 </v>
    <v>       0.66666666       0.66666666       0.30218653 </v>
    <v>       0.16666666       0.41666666       0.30218653 </v>
    <v>       0.16666666       0.91666666       0.30218653 </v>
    <v>       0.66666666       0.41666666       0.30218653 </v>
    <v>       0.66666666       0.91666666       0.30218653 </v>
    <v>       0.41666666       0.16666666       0.30218653 </v>
    <v>       0.41666666       0.66666666       0.30218653 </v>
    <v>       0.91666666       0.16666666       0.30218653 </v>
    <v>       0.91666666       0.66666666       0.30218653 </v>
    <v>       0.41666666       0.41666666       0.30218653 </v>
    <v>       0.41666666       0.91666666       0.30218653 </v>
    <v>       0.91666666       0.41666666       0.30218653 </v>
    <v>       0.91666666       0.91666666       0.30218653 </v>
    <v>       0.08333333       0.08333333       0.37716320 </v>
    <v>       0.08333333       0.58333333       0.37716320 </v>
    <v>       0.58333333       0.08333333       0.37716320 </v>
    <v>       0.58333333       0.58333333       0.37716320 </v>
    <v>       0.08351614       0.33324190       0.37729758 </v>
    <v>       0.08351614       0.83324190       0.37729758 </v>
    <v>       0.58351614       0.33324190       0.37729758 </v>
    <v>       0.58351614       0.83324190       0.37729758 </v>
    <v>       0.33324190       0.08351614       0.37729758 </v>
    <v>       0.33324190       0.58351614       0.37729758 </v>
    <v>       0.83324190       0.08351614       0.37729758 </v>
    <v>       0.83324190       0.58351614       0.37729758 </v>
    <v>       0.33324190       0.33324190       0.37729758 </v>
    <v>       0.33324190       0.83324190       0.37729758 </v>
    <v>       0.83324190       0.33324190       0.37729758 </v>
    <v>       0.83324190       0.83324190       0.37729758 </v>
    <v>       0.00012997       0.00012997       0.45242342 </v>
    <v>       0.00012997       0.50012997       0.45242342 </v>
    <v>       0.50012997       0.00012997       0.45242342 </v>
    <v>       0.50012997       0.50012997       0.45242342 </v>
    <v>       0.00012997       0.24974005       0.45242342 </v>
    <v>       0.00012997       0.74974005       0.45242342 </v>
    <v>       0.50012997       0.24974005       0.45242342 </v>
    <v>       0.50012997       0.74974005       0.45242342 </v>
    <v>       0.24974005       0.00012997       0.45242342 </v>
    <v>       0.24974005       0.50012997       0.45242342 </v>
    <v>       0.74974005       0.00012997       0.45242342 </v>
    <v>       0.74974005       0.50012997       0.45242342 </v>
    <v>       0.25000000       0.25000000       0.45288750 </v>
    <v>       0.25000000       0.75000000       0.45288750 </v>
    <v>       0.75000000       0.25000000       0.45288750 </v>
    <v>       0.75000000       0.75000000       0.45288750 </v>
    <v>       0.16798098       0.16660598       0.52864795 </v>
    <v>       0.16660598       0.66660598       0.52813907 </v>
    <v>       0.66660598       0.16660598       0.52813907 </v>
    <v>       0.66660598       0.66660598       0.52813907 </v>
    <v>       0.16660598       0.41678801       0.52813907 </v>
    <v>       0.16660598       0.91678801       0.52813907 </v>
    <v>       0.66660598       0.41678801       0.52813907 </v>
    <v>       0.66660598       0.91678801       0.52813907 </v>
    <v>       0.41678801       0.16660598       0.52813907 </v>
    <v>       0.41678801       0.66660598       0.52813907 </v>
    <v>       0.91678801       0.16660598       0.52813907 </v>
    <v>       0.91678801       0.66660598       0.52813907 </v>
    <v>       0.41666666       0.41666666       0.52741939 </v>
    <v>       0.41666666       0.91666666       0.52741939 </v>
    <v>       0.91666666       0.41666666       0.52741939 </v>
    <v>       0.91666666       0.91666666       0.52741939 </v>
    <v>       0.08333333       0.08333333       0.60253339 </v>
    <v>       0.08333333       0.58333333       0.60253339 </v>
    <v>       0.58333333       0.08333333       0.60253339 </v>
    <v>       0.58333333       0.58333333       0.60253339 </v>
    <v>       0.08130935       0.33434529       0.60320464 </v>
    <v>       0.08130935       0.83434529       0.60320464 </v>
    <v>       0.58130935       0.33434529       0.60320464 </v>
    <v>       0.58130935       0.83434529       0.60320464 </v>
    <v>       0.33434529       0.08130935       0.60320464 </v>
    <v>       0.33434529       0.58130935       0.60320464 </v>
    <v>       0.83434529       0.08130935       0.60320464 </v>
    <v>       0.83434529       0.58130935       0.60320464 </v>
    <v>       0.33434529       0.33434529       0.60320464 </v>
    <v>       0.33434529       0.83434529       0.60320464 </v>
    <v>       0.83434529       0.33434529       0.60320464 </v>
    <v>       0.83434529       0.83434529       0.60320464 </v>
    <v>       0.49714648       0.49714648       0.68057248 </v>
    <v>       0.49714648       0.99714648       0.68057248 </v>
    <v>       0.99714648       0.49714648       0.68057248 </v>
    <v>       0.99714648       0.99714648       0.68057248 </v>
    <v>       0.49714648       0.25570704       0.68057248 </v>
    <v>       0.49714648       0.75570704       0.68057248 </v>
    <v>       0.99714648       0.25570704       0.68057248 </v>
    <v>       0.99714648       0.75570704       0.68057248 </v>
    <v>       0.25570704       0.49714648       0.68057248 </v>
    <v>       0.25570704       0.99714648       0.68057248 </v>
    <v>       0.75570704       0.49714648       0.68057248 </v>
    <v>       0.75570704       0.99714648       0.68057248 </v>
    <v>       0.25000000       0.25000000       0.67480871 </v>
    <v>       0.25000000       0.75000000       0.67480871 </v>
    <v>       0.75000000       0.25000000       0.67480871 </v>
    <v>       0.75000000       0.75000000       0.67480871 </v>
    <v>       0.08333333       0.08333333       0.72043888 </v>
    <v>       0.08333333       0.58333333       0.72043888 </v>
    <v>       0.58333333       0.08333333       0.72043888 </v>
    <v>       0.58333333       0.58333333       0.72043888 </v>
   </varray>
  </structure>
  <varray name="forces" >
   <v>       0.00787650       0.00455180       0.07163694 </v>
   <v>       0.00792936       0.00466433       0.07163406 </v>
   <v>       0.00804527       0.00449986       0.07161170 </v>
   <v>       0.00806630       0.00460226       0.07168590 </v>
   <v>       0.00007294      -0.00912926       0.07167643 </v>
   <v>      -0.00006181      -0.00908648       0.07165989 </v>
   <v>       0.00011693      -0.00911813       0.07170757 </v>
   <v>      -0.00003003      -0.00919610       0.07174992 </v>
   <v>      -0.00785535       0.00462281       0.07165474 </v>
   <v>      -0.00786752       0.00477950       0.07165987 </v>
   <v>      -0.00787790       0.00461157       0.07156293 </v>
   <v>      -0.00790851       0.00459560       0.07174451 </v>
   <v>      -0.00001840      -0.00006840       0.08643047 </v>
   <v>      -0.00016617      -0.00000204       0.08632578 </v>
   <v>      -0.00007748      -0.00021274       0.08636008 </v>
   <v>      -0.00011634      -0.00006467       0.08623685 </v>
   <v>       0.00698831       0.00402934      -0.07995338 </v>
   <v>       0.00714957       0.00398775      -0.08003474 </v>
   <v>       0.00709386       0.00411537      -0.07999575 </v>
   <v>       0.00717798       0.00402836      -0.08001143 </v>
   <v>      -0.00010092      -0.00801229      -0.07998763 </v>
   <v>      -0.00023635      -0.00807009      -0.07991612 </v>
   <v>       0.00008456      -0.00778596      -0.07977194 </v>
   <v>      -0.00015128      -0.00793791      -0.07989573 </v>
   <v>      -0.00709531       0.00417203      -0.07998492 </v>
   <v>      -0.00658940       0.00403689      -0.07987480 </v>
   <v>      -0.00706443       0.00392410      -0.07991828 </v>
   <v>      -0.00688567       0.00402580      -0.07984696 </v>
   <v>       0.00006553      -0.00016185      -0.05909750 </v>
   <v>      -0.00030057       0.00004008      -0.05919397 </v>
   <v>      -0.00012025      -0.00018208      -0.05916921 </v>
   <v>      -0.00010564      -0.00022945      -0.05913297 </v>
   <v>       0.00012469       0.00002967       0.00093068 </v>
   <v>      -0.00004284       0.00017006      -0.00009456 </v>
   <v>       0.00009713      -0.00006569       0.00005138 </v>
   <v>      -0.00013265      -0.00003615       0.00013451 </v>
   <v>       0.00002989      -0.00020276       0.00077692 </v>
   <v>      -0.00016164      -0.00008414      -0.00026946 </v>
   <v>      -0.00008224      -0.00005537      -0.00000286 </v>
   <v>       0.00007952      -0.00010648      -0.00003713 </v>
   <v>      -0.00012828       0.00005299       0.00064508 </v>
   <v>      -0.00009219       0.00006233       0.00003110 </v>
   <v>      -0.00013266      -0.00001785      -0.00022854 </v>
   <v>      -0.00007858       0.00017313      -0.00018052 </v>
   <v>      -0.00010919      -0.00004682      -0.00003632 </v>
   <v>       0.00001359       0.00002896      -0.00006222 </v>
   <v>       0.00001877       0.00000525       0.00003906 </v>
   <v>       0.00009935       0.00000472      -0.00012225 </v>
   <v>       0.00061795       0.00048956       0.00069709 </v>
   <v>      -0.00034433      -0.00053098       0.00014491 </v>
   <v>      -0.00033526      -0.00000588      -0.00033029 </v>
   <v>      -0.00001215      -0.00001578      -0.00017870 </v>
   <v>       0.01430576      -0.00911502       0.02388584 </v>
   <v>       0.00004334      -0.00018897       0.00000597 </v>
   <v>       0.00053094       0.00002694      -0.00001257 </v>
   <v>       0.00009407       0.00016329       0.00038394 </v>
   <v>      -0.00146781       0.01114250       0.01465057 </v>
   <v>       0.00024620       0.00024758      -0.00000183 </v>
   <v>      -0.00020844       0.00001006       0.00006358 </v>
   <v>       0.00063452      -0.00057677       0.00053049 </v>
   <v>      -0.00524593      -0.00216454       0.00584200 </v>
   <v>       0.00016975       0.00059029       0.00023024 </v>
   <v>       0.00098965      -0.00024623       0.00044181 </v>
   <v>       0.00008006       0.00022440       0.00005760 </v>
   <v>      -0.09029271       0.00075591      -0.09233593 </v>
   <v>      -0.00001130       0.00017182      -0.00004645 </v>
   <v>       0.00021566       0.00010613      -0.00010877 </v>
   <v>      -0.00013466      -0.00023965      -0.00011074 </v>
   <v>       0.00471573       0.01134475      -0.00169329 </v>
   <v>       0.00486653       0.01116723      -0.00141125 </v>
   <v>       0.00048353      -0.00034681      -0.00007629 </v>
   <v>       0.00076757      -0.00035121      -0.00022690 </v>
   <v>       0.02504295      -0.00022096      -0.00155977 </v>
   <v>      -0.00006329      -0.00010616      -0.00023992 </v>
   <v>       0.02355777      -0.00008817      -0.00130345 </v>
   <v>       0.00005359       0.00014889      -0.00012281 </v>
   <v>       0.00043405       0.00025287       0.00002026 </v>
   <v>       0.00488939      -0.01090283      -0.00143728 </v>
   <v>       0.00521019      -0.01120630      -0.00115812 </v>
   <v>       0.00074620       0.00042699      -0.00023522 </v>
   <v>      -0.00613799      -0.00246200       0.00538563 </v>
   <v>       0.00012947       0.00053279       0.00000740 </v>
   <v>       0.00091064      -0.00026870       0.00039512 </v>
   <v>       0.00004689       0.00008033      -0.00009242 </v>
   <v>      -0.00203669       0.01198308       0.01593088 </v>
   <v>      -0.00002099       0.00010299      -0.00047313 </v>
   <v>       0.00002704      -0.00015614      -0.00051241 </v>
   <v>       0.00054301      -0.00053353       0.00019190 </v>
   <v>       0.01537117      -0.01079301       0.02739175 </v>
   <v>       0.00003674       0.00011212      -0.00047153 </v>
   <v>       0.00026485       0.00002321      -0.00036579 </v>
   <v>       0.00000758       0.00024124      -0.00010233 </v>
   <v>       0.00077388       0.00070364       0.00009218 </v>
   <v>      -0.00032092      -0.00047526      -0.00022172 </v>
   <v>      -0.00015622      -0.00032465      -0.00060136 </v>
   <v>      -0.00028820      -0.00011449      -0.00044122 </v>
   <v>       0.00010899      -0.00001047      -0.00090134 </v>
   <v>      -0.00008520       0.00020550      -0.00077120 </v>
   <v>      -0.00008695      -0.00005498      -0.00071594 </v>
   <v>       0.00008966       0.00006496      -0.00056298 </v>
   <v>      -0.00034157      -0.00004703      -0.00109526 </v>
   <v>       0.00000850       0.00004042      -0.00092332 </v>
   <v>       0.00010910       0.00025972      -0.00035444 </v>
   <v>      -0.00011596      -0.00001453      -0.00068363 </v>
   <v>      -0.00025494      -0.00023624      -0.00098465 </v>
   <v>       0.00039566      -0.00010491      -0.00000257 </v>
   <v>       0.00002592       0.00011553      -0.00070751 </v>
   <v>      -0.00010502      -0.00007372      -0.00072553 </v>
   <v>       0.00029423       0.00011047       0.00109139 </v>
   <v>      -0.00000013       0.00004188      -0.00037548 </v>
   <v>      -0.00004097      -0.00007259      -0.00025411 </v>
   <v>       0.00018195       0.00005473      -0.00009645 </v>
   <v>      -0.00025464      -0.00017104       0.00118043 </v>
   <v>       0.00014420       0.00022025       0.00160214 </v>
   <v>       0.00031785      -0.00008673       0.00182889 </v>
   <v>       0.00033908       0.00020242       0.00184667 </v>
  </varray>
  <varray name="stress" >
   <v>      -2.06327107       0.00139016       0.00100378 </v>
   <v>       0.00139012      -2.06663072      -0.00014835 </v>
   <v>       0.00100379      -0.00014836      -2.16501265 </v>
  </varray>
  <energy>
   <i name="e_fr_energy">   -427.46744293 </i>
   <i name="e_wo_entrp">   -427.44085516 </i>
   <i name="e_0_energy">     -0.05317553 </i>
  </energy>
  <time name="totalsc"> 6891.60 6937.36</time>
  <eigenvalues>
   <array>
    <dimension dim="1">band</dimension>
    <dimension dim="2">kpoint</dimension>
    <dimension dim="3">spin</dimension>
    <field>eigene</field>
    <field>occ</field>
    <set>
     <set comment="spin 1">
      <set comment="kpoint 1">
       <r>  -18.6064    1.0000 </r>
       <r>  -18.5936    1.0000 </r>
       <r>  -18.5935    1.0000 </r>
       <r>  -18.5934    1.0000 </r>
       <r>   -9.4526    1.0000 </r>
       <r>   -8.9609    1.0000 </r>
       <r>   -8.1734    1.0000 </r>
       <r>   -7.6002    1.0000 </r>
       <r>   -7.5991    1.0000 </r>
       <r>   -7.5981    1.0000 </r>
       <r>   -7.5779    1.0000 </r>
       <r>   -7.5771    1.0000 </r>
       <r>   -7.5746    1.0000 </r>
       <r>   -7.2205    1.0000 </r>
       <r>   -7.2193    1.0000 </r>
       <r>   -7.2191    1.0000 </r>
       <r>   -7.1995    1.0000 </r>
       <r>   -7.1464    1.0000 </r>
       <r>   -7.1454    1.0000 </r>
       <r>   -7.1448    1.0000 </r>
       <r>   -6.6268    1.0000 </r>
       <r>   -6.6266    1.0000 </r>
       <r>   -6.6259    1.0000 </r>
       <r>   -6.4852    1.0000 </r>
       <r>   -6.4851    1.0000 </r>
       <r>   -6.4838    1.0000 </r>
       <r>   -6.2515    1.0000 </r>
       <r>   -5.9491    1.0000 </r>
       <r>   -5.9481    1.0000 </r>
       <r>   -5.9477    1.0000 </r>
       <r>   -5.7422    1.0000 </r>
       <r>   -5.7416    1.0000 </r>
       <r>   -5.7401    1.0000 </r>
       <r>   -5.6690    1.0000 </r>
       <r>   -5.6248    1.0000 </r>
       <r>   -5.6247    1.0000 </r>
       <r>   -5.4385    1.0000 </r>
       <r>   -5.4098    1.0000 </r>
       <r>   -5.4098    1.0000 </r>
       <r>   -5.4098    1.0000 </r>
       <r>   -5.3414    1.0000 </r>
       <r>   -5.3412    1.0000 </r>
       <r>   -5.3409    1.0000 </r>
       <r>   -5.3239    1.0000 </r>
       <r>   -5.2825    1.0000 </r>
       <r>   -5.2823    1.0000 </r>
       <r>   -5.2151    1.0000 </r>
       <r>   -5.2087    1.0000 </r>
       <r>   -5.2086    1.0000 </r>
       <r>   -5.2079    1.0000 </r>
       <r>   -5.1338    1.0000 </r>
       <r>   -5.1337    1.0000 </r>
       <r>   -5.1229    1.0000 </r>
       <r>   -5.0556    1.0000 </r>
       <r>   -5.0337    1.0000 </r>
       <r>   -5.0335    1.0000 </r>
       <r>   -5.0036    1.0000 </r>
       <r>   -5.0032    1.0000 </r>
       <r>   -5.0027    1.0000 </r>
       <r>   -4.9778    1.0000 </r>
       <r>   -4.9771    1.0000 </r>
       <r>   -4.9761    1.0000 </r>
       <r>   -4.9625    1.0000 </r>
       <r>   -4.9621    1.0000 </r>
       <r>   -4.9571    1.0000 </r>
       <r>   -4.9560    1.0000 </r>
       <r>   -4.9555    1.0000 </r>
       <r>   -4.9359    1.0000 </r>
       <r>   -4.8832    1.0000 </r>
       <r>   -4.8826    1.0000 </r>
       <r>   -4.8821    1.0000 </r>
       <r>   -4.8546    1.0000 </r>
       <r>   -4.8531    1.0000 </r>
       <r>   -4.8527    1.0000 </r>
       <r>   -4.8400    1.0000 </r>
       <r>   -4.8246    1.0000 </r>
       <r>   -4.8243    1.0000 </r>
       <r>   -4.8120    1.0000 </r>
       <r>   -4.8114    1.0000 </r>
       <r>   -4.8108    1.0000 </r>
       <r>   -4.7496    1.0000 </r>
       <r>   -4.7488    1.0000 </r>
       <r>   -4.7481    1.0000 </r>
       <r>   -4.7070    1.0000 </r>
       <r>   -4.7059    1.0000 </r>
       <r>   -4.7059    1.0000 </r>
       <r>   -4.7026    1.0000 </r>
       <r>   -4.6939    1.0000 </r>
       <r>   -4.6938    1.0000 </r>
       <r>   -4.6224    1.0000 </r>
       <r>   -4.6213    1.0000 </r>
       <r>   -4.6206    1.0000 </r>
       <r>   -4.5862    1.0000 </r>
       <r>   -4.5856    1.0000 </r>
       <r>   -4.5855    1.0000 </r>
       <r>   -4.5819    1.0000 </r>
       <r>   -4.5782    1.0000 </r>
       <r>   -4.5781    1.0000 </r>
       <r>   -4.5454    1.0000 </r>
       <r>   -4.5394    1.0000 </r>
       <r>   -4.5388    1.0000 </r>
       <r>   -4.5386    1.0000 </r>
       <r>   -4.5382    1.0000 </r>
       <r>   -4.5373    1.0000 </r>
       <r>   -4.5277    1.0000 </r>
       <r>   -4.5275    1.0000 </r>
       <r>   -4.5272    1.0000 </r>
       <r>   -4.5045    1.0000 </r>
       <r>   -4.5035    1.0000 </r>
       <r>   -4.5030    1.0000 </r>
       <r>   -4.4603    1.0000 </r>
       <r>   -4.4603    1.0000 </r>
       <r>   -4.4602    1.0000 </r>
       <r>   -4.4544    1.0000 </r>
       <r>   -4.4542    1.0000 </r>
       <r>   -4.4536    1.0000 </r>
       <r>   -4.4471    1.0000 </r>
       <r>   -4.4464    1.0000 </r>
       <r>   -4.4459    1.0000 </r>
       <r>   -4.4069    1.0000 </r>
       <r>   -4.4063    1.0000 </r>
       <r>   -4.4058    1.0000 </r>
       <r>   -4.3886    1.0000 </r>
       <r>   -4.3884    1.0000 </r>
       <r>   -4.3507    1.0000 </r>
       <r>   -4.3502    1.0000 </r>
       <r>   -4.3494    1.0000 </r>
       <r>   -4.3369    1.0000 </r>
       <r>   -4.2427    1.0000 </r>
       <r>   -4.2426    1.0000 </r>
       <r>   -4.2294    1.0000 </r>
       <r>   -4.2285    1.0000 </r>
       <r>   -4.2283    1.0000 </r>
       <r>   -4.2205    1.0000 </r>
       <r>   -4.2193    1.0000 </r>
       <r>   -4.2186    1.0000 </r>
       <r>   -4.2174    1.0000 </r>
       <r>   -4.2172    1.0000 </r>
       <r>   -4.2164    1.0000 </r>
       <r>   -4.2138    1.0000 </r>
       <r>   -4.2136    1.0000 </r>
       <r>   -4.2131    1.0000 </r>
       <r>   -4.2112    1.0000 </r>
       <r>   -4.2109    1.0000 </r>
       <r>   -4.2109    1.0000 </r>
       <r>   -4.1794    1.0000 </r>
       <r>   -4.1791    1.0000 </r>
       <r>   -4.1782    1.0000 </r>
       <r>   -4.0976    1.0000 </r>
       <r>   -4.0968    1.0000 </r>
       <r>   -4.0965    1.0000 </r>
       <r>   -4.0793    1.0000 </r>
       <r>   -4.0788    1.0000 </r>
       <r>   -4.0784    1.0000 </r>
       <r>   -4.0764    1.0000 </r>
       <r>   -4.0762    1.0000 </r>
       <r>   -4.0759    1.0000 </r>
       <r>   -4.0564    1.0000 </r>
       <r>   -4.0562    1.0000 </r>
       <r>   -4.0556    1.0000 </r>
       <r>   -4.0443    1.0000 </r>
       <r>   -4.0441    1.0000 </r>
       <r>   -4.0438    1.0000 </r>
       <r>   -4.0166    1.0000 </r>
       <r>   -4.0043    1.0000 </r>
       <r>   -4.0040    1.0000 </r>
       <r>   -4.0037    1.0000 </r>
       <r>   -3.9693    1.0000 </r>
       <r>   -3.9692    1.0000 </r>
       <r>   -3.9384    1.0000 </r>
       <r>   -3.9377    1.0000 </r>
       <r>   -3.9372    1.0000 </r>
       <r>   -3.9288    1.0000 </r>
       <r>   -3.9287    1.0000 </r>
       <r>   -3.9284    1.0000 </r>
       <r>   -3.9093    1.0000 </r>
       <r>   -3.9090    1.0000 </r>
       <r>   -3.9083    1.0000 </r>
       <r>   -3.8796    1.0000 </r>
       <r>   -3.8792    1.0000 </r>
       <r>   -3.8789    1.0000 </r>
       <r>   -3.8768    1.0000 </r>
       <r>   -3.8762    1.0000 </r>
       <r>   -3.8754    1.0000 </r>
       <r>   -3.8320    1.0000 </r>
       <r>   -3.8311    1.0000 </r>
       <r>   -3.8307    1.0000 </r>
       <r>   -3.8304    1.0000 </r>
       <r>   -3.8125    1.0000 </r>
       <r>   -3.8117    1.0000 </r>
       <r>   -3.8113    1.0000 </r>
       <r>   -3.7987    1.0000 </r>
       <r>   -3.7979    1.0000 </r>
       <r>   -3.7971    1.0000 </r>
       <r>   -3.7867    1.0000 </r>
       <r>   -3.7862    1.0000 </r>
       <r>   -3.7861    1.0000 </r>
       <r>   -3.7753    1.0000 </r>
       <r>   -3.7744    1.0000 </r>
       <r>   -3.7742    1.0000 </r>
       <r>   -3.7508    1.0000 </r>
       <r>   -3.7505    1.0000 </r>
       <r>   -3.7505    1.0000 </r>
       <r>   -3.7087    1.0000 </r>
       <r>   -3.7085    1.0000 </r>
       <r>   -3.7084    1.0000 </r>
       <r>   -3.7070    1.0000 </r>
       <r>   -3.7067    1.0000 </r>
       <r>   -3.7060    1.0000 </r>
       <r>   -3.6822    1.0000 </r>
       <r>   -3.6819    1.0000 </r>
       <r>   -3.6813    1.0000 </r>
       <r>   -3.6771    1.0000 </r>
       <r>   -3.6764    1.0000 </r>
       <r>   -3.6764    1.0000 </r>
       <r>   -3.6685    1.0000 </r>
       <r>   -3.6684    1.0000 </r>
       <r>   -3.6411    1.0000 </r>
       <r>   -3.6400    1.0000 </r>
       <r>   -3.6397    1.0000 </r>
       <r>   -3.6180    1.0000 </r>
       <r>   -3.6162    1.0000 </r>
       <r>   -3.6155    1.0000 </r>
       <r>   -3.6145    1.0000 </r>
       <r>   -3.6026    1.0000 </r>
       <r>   -3.6024    1.0000 </r>
       <r>   -3.6021    1.0000 </r>
       <r>   -3.6016    1.0000 </r>
       <r>   -3.6005    1.0000 </r>
       <r>   -3.5998    1.0000 </r>
       <r>   -3.5976    1.0000 </r>
       <r>   -3.5971    1.0000 </r>
       <r>   -3.5971    1.0000 </r>
       <r>   -3.5812    1.0000 </r>
       <r>   -3.5810    1.0000 </r>
       <r>   -3.5806    1.0000 </r>
       <r>   -3.5504    1.0000 </r>
       <r>   -3.5502    1.0000 </r>
       <r>   -3.5499    1.0000 </r>
       <r>   -3.5369    1.0000 </r>
       <r>   -3.5302    1.0000 </r>
       <r>   -3.5116    1.0000 </r>
       <r>   -3.5114    1.0000 </r>
       <r>   -3.4483    1.0000 </r>
       <r>   -3.4474    1.0000 </r>
       <r>   -3.4473    1.0000 </r>
       <r>   -3.4417    1.0000 </r>
       <r>   -3.4335    1.0000 </r>
       <r>   -3.4334    1.0000 </r>
       <r>   -3.4332    1.0000 </r>
       <r>   -3.4281    1.0000 </r>
       <r>   -3.4279    1.0000 </r>
       <r>   -3.4270    1.0000 </r>
       <r>   -3.4190    1.0000 </r>
       <r>   -3.4187    1.0000 </r>
       <r>   -3.4181    1.0000 </r>
       <r>   -3.4178    1.0000 </r>
       <r>   -3.4177    1.0000 </r>
       <r>   -3.4159    1.0000 </r>
       <r>   -3.4154    1.0000 </r>
       <r>   -3.4148    1.0000 </r>
       <r>   -3.4098    1.0000 </r>
       <r>   -3.3986    1.0000 </r>
       <r>   -3.3980    1.0000 </r>
       <r>   -3.3977    1.0000 </r>
       <r>   -3.3860    1.0000 </r>
       <r>   -3.3860    1.0000 </r>
       <r>   -3.3749    1.0000 </r>
       <r>   -3.3628    1.0000 </r>
       <r>   -3.3626    1.0000 </r>
       <r>   -3.3615    1.0000 </r>
       <r>   -3.3495    1.0000 </r>
       <r>   -3.3494    1.0000 </r>
       <r>   -3.3463    1.0000 </r>
       <r>   -3.3463    1.0000 </r>
       <r>   -3.3462    1.0000 </r>
       <r>   -3.3362    1.0000 </r>
       <r>   -3.3358    1.0000 </r>
       <r>   -3.3355    1.0000 </r>
       <r>   -3.3150    1.0000 </r>
       <r>   -3.3149    1.0000 </r>
       <r>   -3.3047    1.0000 </r>
       <r>   -3.3043    1.0000 </r>
       <r>   -3.3035    1.0000 </r>
[...]
       <r>   -14.5221     0.0000     8.0000 </r>
       <r>   -14.4279     0.0000     8.0000 </r>
       <r>   -14.3337     0.0000     8.0000 </r>
       <r>   -14.2396     0.0000     8.0000 </r>
       <r>   -14.1454     0.0000     8.0000 </r>
       <r>   -14.0512     0.0000     8.0000 </r>
       <r>   -13.9570     0.0000     8.0000 </r>
       <r>   -13.8628     0.0000     8.0000 </r>
       <r>   -13.7686     0.0000     8.0000 </r>
       <r>   -13.6744     0.0000     8.0000 </r>
       <r>   -13.5802     0.0000     8.0000 </r>
       <r>   -13.4861     0.0000     8.0000 </r>
       <r>   -13.3919     0.0000     8.0000 </r>
       <r>   -13.2977     0.0000     8.0000 </r>
       <r>   -13.2035     0.0000     8.0000 </r>
       <r>   -13.1093     0.0000     8.0000 </r>
       <r>   -13.0151     0.0000     8.0000 </r>
       <r>   -12.9209     0.0000     8.0000 </r>
       <r>   -12.8267     0.0000     8.0000 </r>
       <r>   -12.7325     0.0000     8.0000 </r>
       <r>   -12.6384     0.0000     8.0000 </r>
       <r>   -12.5442     0.0000     8.0000 </r>
       <r>   -12.4500     0.0000     8.0000 </r>
       <r>   -12.3558     0.0000     8.0000 </r>
       <r>   -12.2616     0.0000     8.0000 </r>
       <r>   -12.1674     0.0000     8.0000 </r>
       <r>   -12.0732     0.0000     8.0000 </r>
       <r>   -11.9790     0.0000     8.0000 </r>
       <r>   -11.8849     0.0000     8.0000 </r>
       <r>   -11.7907     0.0000     8.0000 </r>
       <r>   -11.6965     0.0000     8.0000 </r>
       <r>   -11.6023     0.0000     8.0000 </r>
       <r>   -11.5081     0.0000     8.0000 </r>
       <r>   -11.4139     0.0000     8.0000 </r>
       <r>   -11.3197     0.0000     8.0000 </r>
       <r>   -11.2255     0.0000     8.0000 </r>
       <r>   -11.1314     0.0000     8.0000 </r>
       <r>   -11.0372     0.0000     8.0000 </r>
       <r>   -10.9430     0.0000     8.0000 </r>
       <r>   -10.8488     0.0000     8.0000 </r>
       <r>   -10.7546     0.0000     8.0000 </r>
       <r>   -10.6604     0.0000     8.0000 </r>
       <r>   -10.5662     0.0000     8.0000 </r>
       <r>   -10.4720     0.0000     8.0000 </r>
       <r>   -10.3779     0.0000     8.0000 </r>
       <r>   -10.2837     0.0000     8.0000 </r>
       <r>   -10.1895     0.0000     8.0000 </r>
       <r>   -10.0953     0.0000     8.0000 </r>
       <r>   -10.0011     0.0000     8.0000 </r>
       <r>    -9.9069     0.0000     8.0000 </r>
       <r>    -9.8127     0.0000     8.0000 </r>
       <r>    -9.7185     0.0000     8.0000 </r>
       <r>    -9.6244     0.0000     8.0000 </r>
       <r>    -9.5302     0.0187     8.0018 </r>
       <r>    -9.4360     0.8940     8.0860 </r>
       <r>    -9.3418     3.2471     8.3918 </r>
       <r>    -9.2476     5.0436     8.8668 </r>
       <r>    -9.1534     0.2764     8.8929 </r>
       <r>    -9.0592     5.8331     9.4423 </r>
       <r>    -8.9650     6.2537    10.0313 </r>
       <r>    -8.8709     6.4953    10.6431 </r>
       <r>    -8.7767     6.1641    11.2237 </r>
       <r>    -8.6825     0.5717    11.2775 </r>
       <r>    -8.5883    15.4975    12.7372 </r>
       <r>    -8.4941    11.3176    13.8032 </r>
       <r>    -8.3999     6.2101    14.3881 </r>
       <r>    -8.3057     6.2060    14.9726 </r>
       <r>    -8.2115     0.8243    15.0502 </r>
       <r>    -8.1174    12.9512    16.2701 </r>
       <r>    -8.0232    14.4815    17.6341 </r>
       <r>    -7.9290    13.2692    18.8839 </r>
       <r>    -7.8348    19.5959    20.7296 </r>
       <r>    -7.7406     6.8883    21.3784 </r>
       <r>    -7.6464     6.0204    21.9454 </r>
       <r>    -7.5522    13.0704    23.1765 </r>
       <r>    -7.4580    15.7950    24.6642 </r>
       <r>    -7.3639    16.3821    26.2072 </r>
       <r>    -7.2697     8.8305    27.0389 </r>
       <r>    -7.1755    20.6187    28.9809 </r>
       <r>    -7.0813    16.2149    30.5081 </r>
       <r>    -6.9871    13.2922    31.7601 </r>
       <r>    -6.8929    16.6803    33.3312 </r>
       <r>    -6.7987    31.7552    36.3221 </r>
       <r>    -6.7045    15.2832    37.7616 </r>
       <r>    -6.6104    18.3531    39.4902 </r>
       <r>    -6.5162    13.4288    40.7551 </r>
       <r>    -6.4220    24.4144    43.0546 </r>
       <r>    -6.3278    23.6764    45.2846 </r>
       <r>    -6.2336    18.6666    47.0428 </r>
       <r>    -6.1394    46.6974    51.4411 </r>
       <r>    -6.0452    21.0254    53.4214 </r>
       <r>    -5.9510    45.9063    57.7453 </r>
       <r>    -5.8569    21.1317    59.7356 </r>
       <r>    -5.7627    20.5717    61.6732 </r>
       <r>    -5.6685    59.7525    67.3011 </r>
       <r>    -5.5743    86.9275    75.4886 </r>
       <r>    -5.4801    74.0439    82.4627 </r>
       <r>    -5.3859    60.6280    88.1731 </r>
       <r>    -5.2917    95.1452    97.1346 </r>
       <r>    -5.1975    89.2548   105.5413 </r>
       <r>    -5.1034   107.9119   115.7052 </r>
       <r>    -5.0092   119.4201   126.9531 </r>
       <r>    -4.9150   145.3468   140.6430 </r>
       <r>    -4.8208   127.5988   152.6612 </r>
       <r>    -4.7266   126.6685   164.5918 </r>
       <r>    -4.6324   166.1324   180.2394 </r>
       <r>    -4.5382   204.7272   199.5222 </r>
       <r>    -4.4440   241.1172   222.2325 </r>
       <r>    -4.3499   284.6233   249.0405 </r>
       <r>    -4.2557   253.7739   272.9428 </r>
       <r>    -4.1615   219.5646   293.6231 </r>
       <r>    -4.0673   206.5728   313.0797 </r>
       <r>    -3.9731   219.4234   333.7467 </r>
       <r>    -3.8789   272.8969   359.4502 </r>
       <r>    -3.7847   278.6941   385.6997 </r>
       <r>    -3.6905   321.7069   416.0005 </r>
       <r>    -3.5963   318.4585   445.9954 </r>
       <r>    -3.5022   325.0317   476.6093 </r>
       <r>    -3.4080   392.9606   513.6214 </r>
       <r>    -3.3138   477.4448   558.5908 </r>
       <r>    -3.2196   505.7430   606.2255 </r>
       <r>    -3.1254   438.8448   647.5593 </r>
       <r>    -3.0312   452.0773   690.1394 </r>
       <r>    -2.9370   325.5499   720.8021 </r>
       <r>    -2.8428   362.6132   754.9558 </r>
       <r>    -2.7487   347.1495   787.6530 </r>
       <r>    -2.6545   410.5422   826.3210 </r>
       <r>    -2.5603   409.4786   864.8888 </r>
       <r>    -2.4661   388.9794   901.5259 </r>
       <r>    -2.3719   429.4442   941.9742 </r>
       <r>    -2.2777   419.6924   981.5040 </r>
       <r>    -2.1835   440.6064  1023.0037 </r>
       <r>    -2.0893   530.3138  1072.9527 </r>
       <r>    -1.9952   616.1873  1130.9899 </r>
       <r>    -1.9010   434.4923  1171.9137 </r>
       <r>    -1.8068   162.1131  1187.1828 </r>
       <r>    -1.7126    69.4527  1193.7244 </r>
       <r>    -1.6184    52.2736  1198.6479 </r>
       <r>    -1.5242    58.6036  1204.1676 </r>
       <r>    -1.4300    59.3149  1209.7544 </r>
       <r>    -1.3358    89.6299  1218.1964 </r>
       <r>    -1.2417    59.3459  1223.7860 </r>
       <r>    -1.1475    35.9515  1227.1722 </r>
       <r>    -1.0533    11.6343  1228.2680 </r>
       <r>    -0.9591    47.7843  1232.7687 </r>
       <r>    -0.8649    37.9828  1236.3463 </r>
       <r>    -0.7707    43.9370  1240.4846 </r>
       <r>    -0.6765    46.9877  1244.9102 </r>
       <r>    -0.5823    58.1909  1250.3911 </r>
       <r>    -0.4882    20.2729  1252.3006 </r>
       <r>    -0.3940    34.9038  1255.5881 </r>
       <r>    -0.2998    37.5426  1259.1241 </r>
       <r>    -0.2056    41.1392  1262.9989 </r>
       <r>    -0.1114    23.6937  1265.2306 </r>
       <r>    -0.0172    35.0736  1268.5341 </r>
       <r>     0.0770    48.7076  1273.1217 </r>
       <r>     0.1712    42.4762  1277.1225 </r>
       <r>     0.2653    13.0102  1278.3479 </r>
       <r>     0.3595    25.5245  1280.7519 </r>
       <r>     0.4537    43.3695  1284.8368 </r>
       <r>     0.5479    34.0453  1288.0435 </r>
       <r>     0.6421    28.4892  1290.7268 </r>
       <r>     0.7363    54.3091  1295.8420 </r>
       <r>     0.8305    35.3562  1299.1721 </r>
       <r>     0.9247    31.4127  1302.1308 </r>
       <r>     1.0188    29.1102  1304.8727 </r>
       <r>     1.1130    29.0541  1307.6092 </r>
       <r>     1.2072    47.1883  1312.0537 </r>
       <r>     1.3014    19.5176  1313.8921 </r>
       <r>     1.3956    20.2428  1315.7987 </r>
       <r>     1.4898    37.2486  1319.3070 </r>
       <r>     1.5840    32.1198  1322.3323 </r>
       <r>     1.6782    27.9046  1324.9606 </r>
       <r>     1.7723    20.3732  1326.8795 </r>
       <r>     1.8665    41.4573  1330.7843 </r>
       <r>     1.9607    37.1989  1334.2879 </r>
       <r>     2.0549    39.3936  1337.9983 </r>
       <r>     2.1491    24.6556  1340.3206 </r>
       <r>     2.2433    37.8940  1343.8897 </r>
       <r>     2.3375    24.6523  1346.2117 </r>
       <r>     2.4317    22.5015  1348.3310 </r>
       <r>     2.5258    14.7690  1349.7221 </r>
       <r>     2.6200    11.7682  1350.8305 </r>
       <r>     2.7142    19.6908  1352.6851 </r>
       <r>     2.8084    32.5983  1355.7555 </r>
       <r>     2.9026    28.0959  1358.4018 </r>
       <r>     2.9968    27.1001  1360.9543 </r>
       <r>     3.0910    19.4921  1362.7902 </r>
       <r>     3.1852    23.3851  1364.9928 </r>
       <r>     3.2793    21.0954  1366.9797 </r>
       <r>     3.3735     8.7547  1367.8043 </r>
       <r>     3.4677    30.6133  1370.6877 </r>
       <r>     3.5619    31.9576  1373.6977 </r>
       <r>     3.6561    27.7949  1376.3156 </r>
       <r>     3.7503     7.1553  1376.9896 </r>
       <r>     3.8445    21.7308  1379.0364 </r>
       <r>     3.9387    44.3530  1383.2139 </r>
       <r>     4.0328    32.6243  1386.2867 </r>
       <r>     4.1270    41.9644  1390.2392 </r>
       <r>     4.2212    50.9717  1395.0401 </r>
       <r>     4.3154    35.2620  1398.3613 </r>
       <r>     4.4096    18.4663  1400.1006 </r>
       <r>     4.5038    23.1103  1402.2773 </r>
       <r>     4.5980    31.5540  1405.2493 </r>
       <r>     4.6922    38.0488  1408.8330 </r>
       <r>     4.7864    41.0054  1412.6953 </r>
       <r>     4.8805    47.7044  1417.1884 </r>
       <r>     4.9747    38.1485  1420.7815 </r>
       <r>     5.0689    40.2011  1424.5680 </r>
       <r>     5.1631    37.0379  1428.0565 </r>
       <r>     5.2573    28.8177  1430.7708 </r>
       <r>     5.3515    59.4508  1436.3703 </r>
       <r>     5.4457    37.2005  1439.8741 </r>
       <r>     5.5399    54.2123  1444.9803 </r>
       <r>     5.6340    33.9538  1448.1783 </r>
       <r>     5.7282    34.2209  1451.4015 </r>
       <r>     5.8224    33.8611  1454.5908 </r>
       <r>     5.9166    33.0748  1457.7060 </r>
       <r>     6.0108    61.4796  1463.4966 </r>
       <r>     6.1050    54.3395  1468.6147 </r>
       <r>     6.1992    44.6236  1472.8177 </r>
       <r>     6.2934    40.4096  1476.6238 </r>
       <r>     6.3875    36.4404  1480.0560 </r>
       <r>     6.4817    51.2330  1484.8816 </r>
       <r>     6.5759    42.8139  1488.9141 </r>
       <r>     6.6701    35.3185  1492.2407 </r>
       <r>     6.7643    37.2497  1495.7491 </r>
       <r>     6.8585    59.2393  1501.3287 </r>
       <r>     6.9527    48.9506  1505.9393 </r>
       <r>     7.0469    36.7375  1509.3995 </r>
       <r>     7.1410    26.6925  1511.9136 </r>
       <r>     7.2352     0.9172  1512.0000 </r>
       <r>     7.3294     0.0001  1512.0000 </r>
       <r>     7.4236     0.0000  1512.0000 </r>
       <r>     7.5178     0.0000  1512.0000 </r>
       <r>     7.6120     0.0000  1512.0000 </r>
       <r>     7.7062     0.0000  1512.0000 </r>
       <r>     7.8004     0.0000  1512.0000 </r>
       <r>     7.8945     0.0000  1512.0000 </r>
       <r>     7.9887     0.0000  1512.0000 </r>
       <r>     8.0829     0.0000  1512.0000 </r>
       <r>     8.1771     0.0000  1512.0000 </r>
       <r>     8.2713     0.0000  1512.0000 </r>
       <r>     8.3655     0.0000  1512.0000 </r>
      </set>
     </set>
    </array>
   </total>
  </dos>
 </calculation>
 <structure name="finalpos" >
  <crystal>
   <varray name="basis" >
    <v>      10.28518105       0.00000000       0.00000000 </v>
    <v>       5.14259052       8.90722807       0.00000000 </v>
    <v>       0.00000000       0.00000000      27.79016876 </v>
   </varray>
   <i name="volume">   2545.92553775 </i>
   <varray name="rec_basis" >
    <v>       0.09722726      -0.05613419       0.00000000 </v>
    <v>       0.00000000       0.11226837       0.00000000 </v>
    <v>       0.00000000       0.00000000       0.03598395 </v>
   </varray>
  </crystal>
  <varray name="positions" >
   <v>       0.00000000       0.00000000       0.22663990 </v>
   <v>       0.00000000       0.50000000       0.22663990 </v>
   <v>       0.50000000       0.00000000       0.22663990 </v>
   <v>       0.50000000       0.50000000       0.22663990 </v>
   <v>       0.00000000       0.25000000       0.22663990 </v>
   <v>       0.00000000       0.75000000       0.22663990 </v>
   <v>       0.50000000       0.25000000       0.22663990 </v>
   <v>       0.50000000       0.75000000       0.22663990 </v>
   <v>       0.25000000       0.00000000       0.22663990 </v>
   <v>       0.25000000       0.50000000       0.22663990 </v>
   <v>       0.75000000       0.00000000       0.22663990 </v>
   <v>       0.75000000       0.50000000       0.22663990 </v>
   <v>       0.25000000       0.25000000       0.22663990 </v>
   <v>       0.25000000       0.75000000       0.22663990 </v>
   <v>       0.75000000       0.25000000       0.22663990 </v>
   <v>       0.75000000       0.75000000       0.22663990 </v>
   <v>       0.16666666       0.16666666       0.30218653 </v>
   <v>       0.16666666       0.66666666       0.30218653 </v>
   <v>       0.66666666       0.16666666       0.30218653 </v>
   <v>       0.66666666       0.66666666       0.30218653 </v>
   <v>       0.16666666       0.41666666       0.30218653 </v>
   <v>       0.16666666       0.91666666       0.30218653 </v>
   <v>       0.66666666       0.41666666       0.30218653 </v>
   <v>       0.66666666       0.91666666       0.30218653 </v>
   <v>       0.41666666       0.16666666       0.30218653 </v>
   <v>       0.41666666       0.66666666       0.30218653 </v>
   <v>       0.91666666       0.16666666       0.30218653 </v>
   <v>       0.91666666       0.66666666       0.30218653 </v>
   <v>       0.41666666       0.41666666       0.30218653 </v>
   <v>       0.41666666       0.91666666       0.30218653 </v>
   <v>       0.91666666       0.41666666       0.30218653 </v>
   <v>       0.91666666       0.91666666       0.30218653 </v>
   <v>       0.08333333       0.08333333       0.37716320 </v>
   <v>       0.08333333       0.58333333       0.37716320 </v>
   <v>       0.58333333       0.08333333       0.37716320 </v>
   <v>       0.58333333       0.58333333       0.37716320 </v>
   <v>       0.08351614       0.33324190       0.37729758 </v>
   <v>       0.08351614       0.83324190       0.37729758 </v>
   <v>       0.58351614       0.33324190       0.37729758 </v>
   <v>       0.58351614       0.83324190       0.37729758 </v>
   <v>       0.33324190       0.08351614       0.37729758 </v>
   <v>       0.33324190       0.58351614       0.37729758 </v>
   <v>       0.83324190       0.08351614       0.37729758 </v>
   <v>       0.83324190       0.58351614       0.37729758 </v>
   <v>       0.33324190       0.33324190       0.37729758 </v>
   <v>       0.33324190       0.83324190       0.37729758 </v>
   <v>       0.83324190       0.33324190       0.37729758 </v>
   <v>       0.83324190       0.83324190       0.37729758 </v>
   <v>       0.00012997       0.00012997       0.45242342 </v>
   <v>       0.00012997       0.50012997       0.45242342 </v>
   <v>       0.50012997       0.00012997       0.45242342 </v>
   <v>       0.50012997       0.50012997       0.45242342 </v>
   <v>       0.00012997       0.24974005       0.45242342 </v>
   <v>       0.00012997       0.74974005       0.45242342 </v>
   <v>       0.50012997       0.24974005       0.45242342 </v>
   <v>       0.50012997       0.74974005       0.45242342 </v>
   <v>       0.24974005       0.00012997       0.45242342 </v>
   <v>       0.24974005       0.50012997       0.45242342 </v>
   <v>       0.74974005       0.00012997       0.45242342 </v>
   <v>       0.74974005       0.50012997       0.45242342 </v>
   <v>       0.25000000       0.25000000       0.45288750 </v>
   <v>       0.25000000       0.75000000       0.45288750 </v>
   <v>       0.75000000       0.25000000       0.45288750 </v>
   <v>       0.75000000       0.75000000       0.45288750 </v>
   <v>       0.16798098       0.16660598       0.52864795 </v>
   <v>       0.16660598       0.66660598       0.52813907 </v>
   <v>       0.66660598       0.16660598       0.52813907 </v>
   <v>       0.66660598       0.66660598       0.52813907 </v>
   <v>       0.16660598       0.41678801       0.52813907 </v>
   <v>       0.16660598       0.91678801       0.52813907 </v>
   <v>       0.66660598       0.41678801       0.52813907 </v>
   <v>       0.66660598       0.91678801       0.52813907 </v>
   <v>       0.41678801       0.16660598       0.52813907 </v>
   <v>       0.41678801       0.66660598       0.52813907 </v>
   <v>       0.91678801       0.16660598       0.52813907 </v>
   <v>       0.91678801       0.66660598       0.52813907 </v>
   <v>       0.41666666       0.41666666       0.52741939 </v>
   <v>       0.41666666       0.91666666       0.52741939 </v>
   <v>       0.91666666       0.41666666       0.52741939 </v>
   <v>       0.91666666       0.91666666       0.52741939 </v>
   <v>       0.08333333       0.08333333       0.60253339 </v>
   <v>       0.08333333       0.58333333       0.60253339 </v>
   <v>       0.58333333       0.08333333       0.60253339 </v>
   <v>       0.58333333       0.58333333       0.60253339 </v>
   <v>       0.08130935       0.33434529       0.60320464 </v>
   <v>       0.08130935       0.83434529       0.60320464 </v>
   <v>       0.58130935       0.33434529       0.60320464 </v>
   <v>       0.58130935       0.83434529       0.60320464 </v>
   <v>       0.33434529       0.08130935       0.60320464 </v>
   <v>       0.33434529       0.58130935       0.60320464 </v>
   <v>       0.83434529       0.08130935       0.60320464 </v>
   <v>       0.83434529       0.58130935       0.60320464 </v>
   <v>       0.33434529       0.33434529       0.60320464 </v>
   <v>       0.33434529       0.83434529       0.60320464 </v>
   <v>       0.83434529       0.33434529       0.60320464 </v>
   <v>       0.83434529       0.83434529       0.60320464 </v>
   <v>       0.49714648       0.49714648       0.68057248 </v>
   <v>       0.49714648       0.99714648       0.68057248 </v>
   <v>       0.99714648       0.49714648       0.68057248 </v>
   <v>       0.99714648       0.99714648       0.68057248 </v>
   <v>       0.49714648       0.25570704       0.68057248 </v>
   <v>       0.49714648       0.75570704       0.68057248 </v>
   <v>       0.99714648       0.25570704       0.68057248 </v>
   <v>       0.99714648       0.75570704       0.68057248 </v>
   <v>       0.25570704       0.49714648       0.68057248 </v>
   <v>       0.25570704       0.99714648       0.68057248 </v>
   <v>       0.75570704       0.49714648       0.68057248 </v>
   <v>       0.75570704       0.99714648       0.68057248 </v>
   <v>       0.25000000       0.25000000       0.67480871 </v>
   <v>       0.25000000       0.75000000       0.67480871 </v>
   <v>       0.75000000       0.25000000       0.67480871 </v>
   <v>       0.75000000       0.75000000       0.67480871 </v>
   <v>       0.08333333       0.08333333       0.72043888 </v>
   <v>       0.08333333       0.58333333       0.72043888 </v>
   <v>       0.58333333       0.08333333       0.72043888 </v>
   <v>       0.58333333       0.58333333       0.72043888 </v>
  </varray>
 </structure>
</modeling>
