<?xml version="1.0" encoding="ISO-8859-1"?>
<modeling>
 <generator>
  <i name="program" type="string">vasp </i>
  <i name="version" type="string">5.4.4.18Apr17-6-g9f103f2a35  </i>
  <i name="subversion" type="string">(build Feb 09 2021 16:27:36) complex            parallel </i>
  <i name="platform" type="string">IFC15_impi </i>
  <i name="date" type="string">2021 04 29 </i>
  <i name="time" type="string">03:49:33 </i>
 </generator>
 <incar>
  <i type="int" name="ISTART">     0</i>
  <i type="string" name="PREC">a</i>
  <i type="logical" name="ADDGRID"> T  </i>
  <i type="int" name="NELM">   300</i>
  <i type="int" name="NELMIN">     5</i>
  <i type="int" name="IBRION">    -1</i>
  <i name="EDIFF">      0.00000001</i>
  <i name="ENCUT">    500.00000000</i>
  <i type="logical" name="LREAL"> F  </i>
  <i type="int" name="ISMEAR">     0</i>
  <i name="SIGMA">      0.05000000</i>
  <i type="logical" name="LWAVE"> F  </i>
  <i type="logical" name="LCHARG"> F  </i>
  <v type="int" name="KPOINT_BSE">    -1     0     0     0</v>
  <i type="int" name="NELM">   300</i>
  <i type="logical" name="LDIPOL"> T  </i>
  <i type="int" name="IDIPOL">     3</i>
 </incar>
 <structure name="primitive_cell" >
  <crystal>
   <varray name="basis" >
    <v>      17.03433609       0.00000000       0.00000000 </v>
    <v>      -8.51716805      14.75216779       0.00000000 </v>
    <v>       0.00000000       0.00000000      31.29407310 </v>
   </varray>
   <i name="volume">   7863.99353597 </i>
   <varray name="rec_basis" >
    <v>       0.05870496       0.03389332       0.00000000 </v>
    <v>       0.00000000       0.06778665       0.00000000 </v>
    <v>       0.00000000       0.00000000       0.03195493 </v>
   </varray>
  </crystal>
  <varray name="positions" >
   <v>       0.04889542       0.39944771      -0.00431747 </v>
   <v>       0.02661586       0.22338414      -0.00509755 </v>
   <v>       0.02661586      -0.44676828      -0.00509755 </v>
   <v>       0.25000000      -0.50000000      -0.00506925 </v>
   <v>      -0.14944771       0.39944771      -0.00431747 </v>
   <v>      -0.14944771       0.20110457      -0.00431747 </v>
   <v>       0.00060404      -0.49879191       0.07927097 </v>
   <v>       0.00060404       0.24939596       0.07927100 </v>
   <v>       0.25000000      -0.50000000       0.08094485 </v>
   <v>      -0.08333334       0.33333334       0.10951073 </v>
   <v>       0.16687125       0.33374251       0.11114905 </v>
   <v>       0.16687125      -0.41687125       0.11114905 </v>
   <v>       0.19676828       0.22338414      -0.00509755 </v>
   <v>       0.19676828      -0.27661586      -0.00509755 </v>
   <v>       0.35055229      -0.29889543      -0.00431747 </v>
   <v>       0.35055229       0.39944771      -0.00431747 </v>
   <v>      -0.25120809       0.24939596       0.07927100 </v>
   <v>      -0.30323172       0.22338414      -0.00509755 </v>
   <v>       0.02661586       0.05323172      -0.00509755 </v>
   <v>       0.02661586      -0.27661586      -0.00509755 </v>
   <v>       0.24879191       0.24939596       0.07927100 </v>
   <v>       0.24879191      -0.25060404       0.07927100 </v>
   <v>      -0.08374251       0.08312875       0.11114905 </v>
   <v>      -0.08374251      -0.41687125       0.11114905 </v>
   <v>      -0.25000000       0.00000000      -0.00506925 </v>
   <v>      -0.25000000      -0.50000000      -0.00506925 </v>
   <v>      -0.08333334       0.33333334       0.19342860 </v>
   <v>       0.41625749      -0.41687125       0.11114905 </v>
   <v>      -0.25000000       0.00000000       0.08094485 </v>
   <v>      -0.25000000      -0.50000000       0.08094485 </v>
   <v>       0.16660331       0.33320661       0.19452973 </v>
   <v>       0.16660331      -0.41660330       0.19452973 </v>
   <v>       0.00108337       0.00216674       0.07972288 </v>
   <v>       0.00060404      -0.25060404       0.07927100 </v>
   <v>      -0.33312875       0.08312875       0.11114905 </v>
   <v>      -0.33312875       0.33374251       0.11114905 </v>
   <v>       0.08333331       0.41666666       0.22222222 </v>
   <v>      -0.47338414      -0.44676828      -0.00509755 </v>
   <v>      -0.47338414      -0.27661586      -0.00509755 </v>
   <v>      -0.14944771      -0.29889543      -0.00431747 </v>
   <v>       0.35055229      -0.10055229      -0.00431747 </v>
   <v>      -0.14944771      -0.10055229      -0.00431747 </v>
   <v>       0.35055229       0.20110457      -0.00431747 </v>
   <v>      -0.49939596      -0.49879191       0.07927097 </v>
   <v>      -0.49939596      -0.25060404       0.07927100 </v>
   <v>       0.16687125       0.08312875       0.11114905 </v>
   <v>       0.16687125      -0.16625749       0.11114905 </v>
   <v>       0.41666666       0.33333334       0.10951073 </v>
   <v>       0.41666666      -0.16666666       0.10951073 </v>
   <v>      -0.08320661       0.08339670       0.19452973 </v>
   <v>      -0.08320661      -0.41660330       0.19452973 </v>
   <v>      -0.47338414       0.05323172      -0.00509755 </v>
   <v>      -0.47338414       0.22338414      -0.00509755 </v>
   <v>      -0.16666666       0.41666666       0.22222222 </v>
   <v>      -0.16666666       0.16666667       0.22222222 </v>
   <v>       0.41679339      -0.41660330       0.19452973 </v>
   <v>       0.08333331       0.16666669       0.22222222 </v>
   <v>       0.08333331      -0.33333331       0.22222222 </v>
   <v>       0.33333334      -0.33333333       0.22222222 </v>
   <v>       0.33333334       0.41666666       0.22222222 </v>
   <v>      -0.45110458       0.39944771      -0.00431747 </v>
   <v>       0.04889542      -0.10055229      -0.00431747 </v>
   <v>      -0.45110458      -0.10055229      -0.00431747 </v>
   <v>      -0.33339669       0.08339670       0.19452973 </v>
   <v>      -0.33339669       0.33320661       0.19452973 </v>
   <v>      -0.49939596       0.00120809       0.07927097 </v>
   <v>      -0.49939596       0.24939596       0.07927100 </v>
   <v>       0.25000000       0.00000000      -0.00506925 </v>
   <v>       0.16660331       0.08339670       0.19452973 </v>
   <v>       0.16660331      -0.16679339       0.19452973 </v>
   <v>      -0.33312875      -0.16625749       0.11114905 </v>
   <v>      -0.33312875      -0.41687125       0.11114905 </v>
   <v>       0.41666666       0.33333334       0.19342860 </v>
   <v>       0.41666666      -0.16666666       0.19342860 </v>
   <v>       0.25000000       0.00000000       0.08094485 </v>
   <v>      -0.08333334      -0.16666666       0.10951073 </v>
   <v>      -0.30323172      -0.27661586      -0.00509755 </v>
   <v>       0.08333331       0.41666666       0.30555555 </v>
   <v>      -0.41666669       0.16666669       0.22222222 </v>
   <v>      -0.25120809      -0.25060404       0.07927100 </v>
   <v>       0.41625749       0.08312875       0.11114905 </v>
   <v>      -0.16666666      -0.33333333       0.22222222 </v>
   <v>      -0.16666666      -0.08333334       0.22222222 </v>
   <v>       0.33333334      -0.08333334       0.22222222 </v>
   <v>       0.33333334       0.16666667       0.22222222 </v>
   <v>      -0.16666666       0.41666666       0.30555555 </v>
   <v>      -0.16666666       0.16666667       0.30555555 </v>
   <v>      -0.33339669      -0.16679339       0.19452973 </v>
   <v>      -0.33339669      -0.41660330       0.19452973 </v>
   <v>      -0.41666669      -0.33333331       0.22222222 </v>
   <v>       0.08333331       0.16666669       0.30555555 </v>
   <v>       0.08333331      -0.33333331       0.30555555 </v>
   <v>      -0.08333334      -0.16666666       0.19342860 </v>
   <v>      -0.41666669       0.41666666       0.22222222 </v>
   <v>      -0.41666669      -0.08333334       0.22222222 </v>
   <v>       0.33333334      -0.33333333       0.30555555 </v>
   <v>       0.33333334       0.41666666       0.30555555 </v>
   <v>       0.00000000       0.25000000       0.33333334 </v>
   <v>       0.00000000      -0.50000000       0.33333334 </v>
   <v>       0.25000000      -0.50000000       0.33333334 </v>
   <v>       0.08333331      -0.08333334       0.22222222 </v>
   <v>       0.41679339       0.08339670       0.19452973 </v>
   <v>      -0.25000000       0.25000000       0.33333334 </v>
   <v>       0.25000000       0.25000000       0.33333334 </v>
   <v>       0.25000000      -0.25000000       0.33333334 </v>
   <v>      -0.41666669       0.16666669       0.30555555 </v>
   <v>      -0.16666666      -0.33333333       0.30555555 </v>
   <v>      -0.16666666      -0.08333334       0.30555555 </v>
   <v>      -0.25000000       0.00000000       0.33333334 </v>
   <v>      -0.25000000      -0.50000000       0.33333334 </v>
   <v>       0.33333334      -0.08333334       0.30555555 </v>
   <v>       0.33333334       0.16666667       0.30555555 </v>
   <v>       0.00000000       0.00000000       0.33333334 </v>
   <v>       0.00000000      -0.25000000       0.33333334 </v>
   <v>      -0.41666669      -0.33333331       0.30555555 </v>
   <v>      -0.41666669       0.41666666       0.30555555 </v>
   <v>      -0.41666669      -0.08333334       0.30555555 </v>
   <v>      -0.50000000      -0.50000000       0.33333334 </v>
   <v>      -0.50000000      -0.25000000       0.33333334 </v>
   <v>       0.08333331      -0.08333334       0.30555555 </v>
   <v>       0.00000000       0.25000000       0.41666666 </v>
   <v>       0.00000000      -0.50000000       0.41666666 </v>
   <v>      -0.50000000       0.00000000       0.33333334 </v>
   <v>      -0.50000000       0.25000000       0.33333334 </v>
   <v>       0.25000000      -0.50000000       0.41666666 </v>
   <v>       0.25000000       0.00000000       0.33333334 </v>
   <v>      -0.25000000       0.25000000       0.41666666 </v>
   <v>       0.25000000       0.25000000       0.41666666 </v>
   <v>       0.25000000      -0.25000000       0.41666666 </v>
   <v>      -0.08333334       0.33333334       0.44444445 </v>
   <v>      -0.25000000      -0.25000000       0.33333334 </v>
   <v>       0.16666667       0.33333334       0.44444445 </v>
   <v>       0.16666667      -0.41666666       0.44444445 </v>
   <v>      -0.25000000       0.00000000       0.41666666 </v>
   <v>      -0.25000000      -0.50000000       0.41666666 </v>
   <v>       0.00000000       0.00000000       0.41666666 </v>
   <v>       0.00000000      -0.25000000       0.41666666 </v>
   <v>      -0.08333334       0.08333334       0.44444445 </v>
   <v>      -0.08333334      -0.41666666       0.44444445 </v>
   <v>      -0.50000000      -0.50000000       0.41666666 </v>
   <v>      -0.50000000      -0.25000000       0.41666666 </v>
   <v>       0.41666666      -0.41666666       0.44444445 </v>
   <v>      -0.33333333       0.08333334       0.44444445 </v>
   <v>      -0.33333333       0.33333334       0.44444445 </v>
   <v>       0.16666667       0.08333334       0.44444445 </v>
   <v>       0.16666667      -0.16666666       0.44444445 </v>
   <v>      -0.50000000       0.00000000       0.41666666 </v>
   <v>      -0.50000000       0.25000000       0.41666666 </v>
   <v>      -0.08333334       0.33333334      -0.49992920 </v>
   <v>       0.41666666       0.33333334       0.44444445 </v>
   <v>       0.41666666      -0.16666666       0.44444445 </v>
   <v>       0.16666667       0.33333334      -0.49992920 </v>
   <v>       0.16666667      -0.41666666      -0.49992920 </v>
   <v>       0.25000000       0.00000000       0.41666666 </v>
   <v>      -0.08333334       0.08333334      -0.49992920 </v>
   <v>      -0.08333334      -0.41666666      -0.49992920 </v>
   <v>      -0.25000000      -0.25000000       0.41666666 </v>
   <v>      -0.33333333      -0.16666666       0.44444445 </v>
   <v>      -0.33333333      -0.41666666       0.44444445 </v>
   <v>       0.41666666      -0.41666666      -0.49992920 </v>
   <v>      -0.08333334      -0.16666666       0.44444445 </v>
   <v>      -0.33333333       0.08333334      -0.49992920 </v>
   <v>      -0.33333333       0.33333334      -0.49992920 </v>
   <v>       0.41666666       0.08333334       0.44444445 </v>
   <v>       0.16666667       0.08333334      -0.49992920 </v>
   <v>       0.16666667      -0.16666666      -0.49992920 </v>
   <v>       0.41666666       0.33333334      -0.49992920 </v>
   <v>       0.41666666      -0.16666666      -0.49992920 </v>
   <v>      -0.33333333      -0.16666666      -0.49992920 </v>
   <v>      -0.33333333      -0.41666666      -0.49992920 </v>
   <v>      -0.08333334      -0.16666666      -0.49992920 </v>
   <v>       0.41666666       0.08333334      -0.49992920 </v>
  </varray>
 </structure>
 <varray name="primitive_index" >
  <v type="int" >        1 </v>
  <v type="int" >       25 </v>
  <v type="int" >       14 </v>
  <v type="int" >       22 </v>
  <v type="int" >        7 </v>
  <v type="int" >       11 </v>
  <v type="int" >       94 </v>
  <v type="int" >       97 </v>
  <v type="int" >      102 </v>
  <v type="int" >       39 </v>
  <v type="int" >       29 </v>
  <v type="int" >       42 </v>
  <v type="int" >       17 </v>
  <v type="int" >       18 </v>
  <v type="int" >       10 </v>
  <v type="int" >        5 </v>
  <v type="int" >      107 </v>
  <v type="int" >       19 </v>
  <v type="int" >       13 </v>
  <v type="int" >       26 </v>
  <v type="int" >      105 </v>
  <v type="int" >      106 </v>
  <v type="int" >       35 </v>
  <v type="int" >       36 </v>
  <v type="int" >       23 </v>
  <v type="int" >       24 </v>
  <v type="int" >      119 </v>
  <v type="int" >       34 </v>
  <v type="int" >      103 </v>
  <v type="int" >      104 </v>
  <v type="int" >      109 </v>
  <v type="int" >      114 </v>
  <v type="int" >       93 </v>
  <v type="int" >       98 </v>
  <v type="int" >       43 </v>
  <v type="int" >       31 </v>
  <v type="int" >       49 </v>
  <v type="int" >       16 </v>
  <v type="int" >       28 </v>
  <v type="int" >       12 </v>
  <v type="int" >        6 </v>
  <v type="int" >        8 </v>
  <v type="int" >        9 </v>
  <v type="int" >       96 </v>
  <v type="int" >      100 </v>
  <v type="int" >       41 </v>
  <v type="int" >       30 </v>
  <v type="int" >       37 </v>
  <v type="int" >       38 </v>
  <v type="int" >      123 </v>
  <v type="int" >      124 </v>
  <v type="int" >       15 </v>
  <v type="int" >       27 </v>
  <v type="int" >       59 </v>
  <v type="int" >       47 </v>
  <v type="int" >      122 </v>
  <v type="int" >       53 </v>
  <v type="int" >       54 </v>
  <v type="int" >       46 </v>
  <v type="int" >       57 </v>
  <v type="int" >        3 </v>
  <v type="int" >        2 </v>
  <v type="int" >        4 </v>
  <v type="int" >      115 </v>
  <v type="int" >      111 </v>
  <v type="int" >       95 </v>
  <v type="int" >       99 </v>
  <v type="int" >       21 </v>
  <v type="int" >      113 </v>
  <v type="int" >      110 </v>
  <v type="int" >       32 </v>
  <v type="int" >       44 </v>
  <v type="int" >      117 </v>
  <v type="int" >      118 </v>
  <v type="int" >      101 </v>
  <v type="int" >       40 </v>
  <v type="int" >       20 </v>
  <v type="int" >      137 </v>
  <v type="int" >       55 </v>
  <v type="int" >      108 </v>
  <v type="int" >       33 </v>
  <v type="int" >       48 </v>
  <v type="int" >       60 </v>
  <v type="int" >       58 </v>
  <v type="int" >       45 </v>
  <v type="int" >      131 </v>
  <v type="int" >      127 </v>
  <v type="int" >      112 </v>
  <v type="int" >      116 </v>
  <v type="int" >       56 </v>
  <v type="int" >      133 </v>
  <v type="int" >      134 </v>
  <v type="int" >      120 </v>
  <v type="int" >       51 </v>
  <v type="int" >       52 </v>
  <v type="int" >      126 </v>
  <v type="int" >      129 </v>
  <v type="int" >       73 </v>
  <v type="int" >       62 </v>
  <v type="int" >       70 </v>
  <v type="int" >       50 </v>
  <v type="int" >      121 </v>
  <v type="int" >       67 </v>
  <v type="int" >       65 </v>
  <v type="int" >       66 </v>
  <v type="int" >      135 </v>
  <v type="int" >      128 </v>
  <v type="int" >      132 </v>
  <v type="int" >       71 </v>
  <v type="int" >       72 </v>
  <v type="int" >      130 </v>
  <v type="int" >      125 </v>
  <v type="int" >       61 </v>
  <v type="int" >       74 </v>
  <v type="int" >      136 </v>
  <v type="int" >      139 </v>
  <v type="int" >      140 </v>
  <v type="int" >       64 </v>
  <v type="int" >       76 </v>
  <v type="int" >      138 </v>
  <v type="int" >      145 </v>
  <v type="int" >      142 </v>
  <v type="int" >       63 </v>
  <v type="int" >       75 </v>
  <v type="int" >      150 </v>
  <v type="int" >       69 </v>
  <v type="int" >      155 </v>
  <v type="int" >      153 </v>
  <v type="int" >      154 </v>
  <v type="int" >       87 </v>
  <v type="int" >       68 </v>
  <v type="int" >       77 </v>
  <v type="int" >       90 </v>
  <v type="int" >      151 </v>
  <v type="int" >      152 </v>
  <v type="int" >      141 </v>
  <v type="int" >      146 </v>
  <v type="int" >       83 </v>
  <v type="int" >       84 </v>
  <v type="int" >      144 </v>
  <v type="int" >      148 </v>
  <v type="int" >       82 </v>
  <v type="int" >       91 </v>
  <v type="int" >       79 </v>
  <v type="int" >       89 </v>
  <v type="int" >       78 </v>
  <v type="int" >      143 </v>
  <v type="int" >      147 </v>
  <v type="int" >      167 </v>
  <v type="int" >       85 </v>
  <v type="int" >       86 </v>
  <v type="int" >      157 </v>
  <v type="int" >      162 </v>
  <v type="int" >      149 </v>
  <v type="int" >      171 </v>
  <v type="int" >      172 </v>
  <v type="int" >      156 </v>
  <v type="int" >       80 </v>
  <v type="int" >       92 </v>
  <v type="int" >      170 </v>
  <v type="int" >       88 </v>
  <v type="int" >      163 </v>
  <v type="int" >      159 </v>
  <v type="int" >       81 </v>
  <v type="int" >      161 </v>
  <v type="int" >      158 </v>
  <v type="int" >      165 </v>
  <v type="int" >      166 </v>
  <v type="int" >      160 </v>
  <v type="int" >      164 </v>
  <v type="int" >      168 </v>
  <v type="int" >      169 </v>
 </varray>
 <kpoints>
  <generation param="Gamma">
   <v type="int" name="divisions">       3        3        1 </v>
   <v name="usershift">      0.00000000       0.00000000       0.00000000 </v>
   <v name="genvec1">      0.33333333      -0.00000000       0.00000000 </v>
   <v name="genvec2">      0.00000000       0.33333333       0.00000000 </v>
   <v name="genvec3">      0.00000000       0.00000000       1.00000000 </v>
   <v name="shift">      0.00000000       0.00000000       0.00000000 </v>
  </generation>
  <varray name="kpointlist" >
   <v>       0.00000000       0.00000000       0.00000000 </v>
   <v>       0.33333333      -0.00000000       0.00000000 </v>
   <v>       0.00000000       0.33333333       0.00000000 </v>
   <v>       0.33333333       0.33333333       0.00000000 </v>
  </varray>
  <varray name="weights" >
   <v>       0.11111111 </v>
   <v>       0.44444444 </v>
   <v>       0.22222222 </v>
   <v>       0.22222222 </v>
  </varray>
 </kpoints>
 <parameters>
  <separator name="general" >
   <i type="string" name="SYSTEM">unknown system</i>
   <i type="logical" name="LCOMPAT"> F  </i>
  </separator>
  <separator name="electronic" >
   <i type="string" name="PREC">a</i>
   <i name="ENMAX">    500.00000000</i>
   <i name="ENAUG">    462.75800000</i>
   <i name="EDIFF">      0.00000001</i>
   <i type="int" name="IALGO">    38</i>
   <i type="int" name="IWAVPR">    10</i>
   <i type="int" name="NBANDS">   924</i>
   <i name="NELECT">   1536.00000000</i>
   <i type="int" name="TURBO">     0</i>
   <i type="int" name="IRESTART">     0</i>
   <i type="int" name="NREBOOT">     0</i>
   <i type="int" name="NMIN">     0</i>
   <i name="EREF">      0.00000000</i>
   <separator name="electronic smearing" >
    <i type="int" name="ISMEAR">     0</i>
    <i name="SIGMA">      0.05000000</i>
    <i name="KSPACING">      0.50000000</i>
    <i type="logical" name="KGAMMA"> T  </i>
   </separator>
   <separator name="electronic projectors" >
    <i type="logical" name="LREAL"> F  </i>
    <v name="ROPT">      0.00000000      0.00000000      0.00000000</v>
    <i type="int" name="LMAXPAW">  -100</i>
    <i type="int" name="LMAXMIX">     2</i>
    <i type="logical" name="NLSPLINE"> F  </i>
   </separator>
   <separator name="electronic startup" >
    <i type="int" name="ISTART">     0</i>
    <i type="int" name="ICHARG">     2</i>
    <i type="int" name="INIWAV">     1</i>
   </separator>
   <separator name="electronic spin" >
    <i type="int" name="ISPIN">     1</i>
    <i type="logical" name="LNONCOLLINEAR"> F  </i>
    <v name="MAGMOM">      1.00000000      1.00000000      1.00000000      1.00000000      1.00000000      1.00000000      1.00000000      1.00000000      1.00000000      1.00000000      1.00000000      1.00000000      1.00000000      1.00000000      1.00000000      1.00000000      1.00000000      1.00000000      1.00000000      1.00000000
      1.00000000      1.00000000      1.00000000      1.00000000      1.00000000      1.00000000      1.00000000      1.00000000      1.00000000      1.00000000      1.00000000      1.00000000      1.00000000      1.00000000      1.00000000      1.00000000      1.00000000      1.00000000      1.00000000      1.00000000
      1.00000000      1.00000000      1.00000000      1.00000000      1.00000000      1.00000000      1.00000000      1.00000000      1.00000000      1.00000000      1.00000000      1.00000000      1.00000000      1.00000000      1.00000000      1.00000000      1.00000000      1.00000000      1.00000000      1.00000000
      1.00000000      1.00000000      1.00000000      1.00000000      1.00000000      1.00000000      1.00000000      1.00000000      1.00000000      1.00000000      1.00000000      1.00000000      1.00000000      1.00000000      1.00000000      1.00000000      1.00000000      1.00000000      1.00000000      1.00000000
      1.00000000      1.00000000      1.00000000      1.00000000      1.00000000      1.00000000      1.00000000      1.00000000      1.00000000      1.00000000      1.00000000      1.00000000      1.00000000      1.00000000      1.00000000      1.00000000      1.00000000      1.00000000      1.00000000      1.00000000
      1.00000000      1.00000000      1.00000000      1.00000000      1.00000000      1.00000000      1.00000000      1.00000000      1.00000000      1.00000000      1.00000000      1.00000000      1.00000000      1.00000000      1.00000000      1.00000000      1.00000000      1.00000000      1.00000000      1.00000000
      1.00000000      1.00000000      1.00000000      1.00000000      1.00000000      1.00000000      1.00000000      1.00000000      1.00000000      1.00000000      1.00000000      1.00000000      1.00000000      1.00000000      1.00000000      1.00000000      1.00000000      1.00000000      1.00000000      1.00000000
      1.00000000      1.00000000      1.00000000      1.00000000      1.00000000      1.00000000      1.00000000      1.00000000      1.00000000      1.00000000      1.00000000      1.00000000      1.00000000      1.00000000      1.00000000      1.00000000      1.00000000      1.00000000      1.00000000      1.00000000
      1.00000000      1.00000000      1.00000000      1.00000000      1.00000000      1.00000000      1.00000000      1.00000000      1.00000000      1.00000000      1.00000000      1.00000000</v>
    <i name="NUPDOWN">     -1.00000000</i>
    <i type="logical" name="LSORBIT"> F  </i>
    <v name="SAXIS">      0.00000000      0.00000000      1.00000000</v>
    <i type="logical" name="LSPIRAL"> F  </i>
    <v name="QSPIRAL">      0.00000000      0.00000000      0.00000000</v>
    <i type="logical" name="LZEROZ"> F  </i>
   </separator>
   <separator name="electronic exchange-correlation" >
    <i type="logical" name="LASPH"> F  </i>
    <i type="logical" name="LMETAGGA"> F  </i>
   </separator>
   <separator name="electronic convergence" >
    <i type="int" name="NELM">   300</i>
    <i type="int" name="NELMDL">    -5</i>
    <i type="int" name="NELMIN">     5</i>
    <i name="ENINI">    500.00000000</i>
    <separator name="electronic convergence detail" >
     <i type="logical" name="LDIAG"> T  </i>
     <i type="logical" name="LSUBROT"> F  </i>
     <i name="WEIMIN">      0.00000000</i>
     <i name="EBREAK">      0.00000000</i>
     <i name="DEPER">      0.30000000</i>
     <i type="int" name="NRMM">     4</i>
     <i name="TIME">      0.40000000</i>
    </separator>
   </separator>
   <separator name="electronic mixer" >
    <i name="AMIX">      0.40000000</i>
    <i name="BMIX">      1.00000000</i>
    <i name="AMIN">      0.10000000</i>
    <i name="AMIX_MAG">      1.60000000</i>
    <i name="BMIX_MAG">      1.00000000</i>
    <separator name="electronic mixer details" >
     <i type="int" name="IMIX">     4</i>
     <i type="logical" name="MIXFIRST"> F  </i>
     <i type="int" name="MAXMIX">   -45</i>
     <i name="WC">    100.00000000</i>
     <i type="int" name="INIMIX">     1</i>
     <i type="int" name="MIXPRE">     1</i>
     <i type="int" name="MREMOVE">     5</i>
    </separator>
   </separator>
   <separator name="electronic dipolcorrection" >
    <i type="logical" name="LDIPOL"> T  </i>
    <i type="logical" name="LMONO"> F  </i>
    <i type="int" name="IDIPOL">     3</i>
    <i name="EPSILON">      1.00000000</i>
    <v name="DIPOL">   -100.00000000   -100.00000000   -100.00000000</v>
    <i name="EFIELD">      0.00000000</i>
   </separator>
  </separator>
  <separator name="grids" >
   <i type="int" name="NGX">   126</i>
   <i type="int" name="NGY">   126</i>
   <i type="int" name="NGZ">   240</i>
   <i type="int" name="NGXF">   252</i>
   <i type="int" name="NGYF">   252</i>
   <i type="int" name="NGZF">   480</i>
   <i type="logical" name="ADDGRID"> T  </i>
  </separator>
  <separator name="ionic" >
   <i type="int" name="NSW">     0</i>
   <i type="int" name="IBRION">    -1</i>
   <i type="int" name="MDALGO">     0</i>
   <i type="int" name="ISIF">     2</i>
   <i name="PSTRESS">      0.00000000</i>
   <i name="EDIFFG">      0.00000010</i>
   <i type="int" name="NFREE">     0</i>
   <i name="POTIM">      0.50000000</i>
   <i name="SMASS">     -3.00000000</i>
   <i name="SCALEE">      1.00000000</i>
  </separator>
  <separator name="ionic md" >
   <i name="TEBEG">      0.00010000</i>
   <i name="TEEND">      0.00010000</i>
   <i type="int" name="NBLOCK">     1</i>
   <i type="int" name="KBLOCK">     1</i>
   <i type="int" name="NPACO">   256</i>
   <i name="APACO">     16.00000000</i>
  </separator>
  <separator name="symmetry" >
   <i type="int" name="ISYM">     2</i>
   <i name="SYMPREC">      0.00001000</i>
  </separator>
  <separator name="dos" >
   <i type="int" name="LORBIT">     0</i>
   <v name="RWIGS">     -1.00000000     -1.00000000     -1.00000000</v>
   <i type="int" name="NEDOS">   301</i>
   <i name="EMIN">     10.00000000</i>
   <i name="EMAX">    -10.00000000</i>
   <i name="EFERMI">      0.00000000</i>
  </separator>
  <separator name="writing" >
   <i type="int" name="NWRITE">     2</i>
   <i type="logical" name="LWAVE"> F  </i>
   <i type="logical" name="LDOWNSAMPLE"> F  </i>
   <i type="logical" name="LCHARG"> F  </i>
   <i type="logical" name="LPARD"> F  </i>
   <i type="logical" name="LVTOT"> F  </i>
   <i type="logical" name="LVHAR"> F  </i>
   <i type="logical" name="LELF"> F  </i>
   <i type="logical" name="LOPTICS"> F  </i>
   <v name="STM">      0.00000000      0.00000000      0.00000000      0.00000000      0.00000000      0.00000000      0.00000000</v>
  </separator>
  <separator name="performance" >
   <i type="int" name="NPAR">     4</i>
   <i type="int" name="NSIM">     4</i>
   <i type="int" name="NBLK">    -1</i>
   <i type="logical" name="LPLANE"> T  </i>
   <i type="logical" name="LSCALAPACK"> F  </i>
   <i type="logical" name="LSCAAWARE"> F  </i>
   <i type="logical" name="LSCALU"> F  </i>
   <i type="logical" name="LASYNC"> F  </i>
   <i type="logical" name="LORBITALREAL"> F  </i>
  </separator>
  <separator name="miscellaneous" >
   <i type="int" name="IDIOT">     3</i>
   <i type="int" name="ISPECIAL">     0</i>
   <i type="logical" name="LMUSIC"> F  </i>
   <v name="POMASS">    114.82000000     74.92200000      1.00000000</v>
   <v name="DARWINR">      0.00000000      0.00000000      0.00000000</v>
   <v name="DARWINV">      1.00000000      1.00000000      1.00000000</v>
   <i type="logical" name="LCORR"> T  </i>
  </separator>
  <i type="logical" name="GGA_COMPAT"> T  </i>
  <i type="logical" name="LBERRY"> F  </i>
  <i type="int" name="ICORELEVEL">     0</i>
  <i type="logical" name="LDAU"> F  </i>
  <i type="int" name="I_CONSTRAINED_M">     0</i>
  <separator name="electronic exchange-correlation" >
   <i type="string" name="GGA">--</i>
   <i type="int" name="VOSKOWN">     0</i>
   <i type="logical" name="LHFCALC"> F  </i>
   <i type="string" name="PRECFOCK"></i>
   <i type="logical" name="LSYMGRAD"> F  </i>
   <i type="logical" name="LHFONE"> F  </i>
   <i type="logical" name="LRHFCALC"> F  </i>
   <i type="logical" name="LTHOMAS"> F  </i>
   <i type="logical" name="LMODELHF"> F  </i>
   <i name="ENCUT4O">     -1.00000000</i>
   <i type="int" name="EXXOEP">     0</i>
   <i type="int" name="FOURORBIT">     0</i>
   <i name="AEXX">      0.00000000</i>
   <i name="HFALPHA">      0.00000000</i>
   <i name="MCALPHA">      0.00000000</i>
   <i name="ALDAX">      1.00000000</i>
   <i name="AGGAX">      1.00000000</i>
   <i name="ALDAC">      1.00000000</i>
   <i name="AGGAC">      1.00000000</i>
   <i type="int" name="NKREDX">     1</i>
   <i type="int" name="NKREDY">     1</i>
   <i type="int" name="NKREDZ">     1</i>
   <i type="logical" name="SHIFTRED"> F  </i>
   <i type="logical" name="ODDONLY"> F  </i>
   <i type="logical" name="EVENONLY"> F  </i>
   <i type="int" name="LMAXFOCK">     0</i>
   <i type="int" name="NMAXFOCKAE">     0</i>
   <i type="logical" name="LFOCKAEDFT"> F  </i>
   <i name="HFSCREEN">      0.00000000</i>
   <i name="HFSCREENC">      0.00000000</i>
   <i type="int" name="NBANDSGWLOW">     0</i>
  </separator>
  <separator name="vdW DFT" >
   <i type="logical" name="LUSE_VDW"> F  </i>
   <i name="Zab_VDW">     -0.84910000</i>
   <i name="PARAM1">      0.12340000</i>
   <i name="PARAM2">      1.00000000</i>
   <i name="PARAM3">      0.00000000</i>
  </separator>
  <separator name="model GW" >
   <i type="int" name="MODEL_GW">     0</i>
   <i name="MODEL_EPS0">     27.43253559</i>
   <i name="MODEL_ALPHA">      1.00000000</i>
  </separator>
  <separator name="linear response parameters" >
   <i type="logical" name="LEPSILON"> F  </i>
   <i type="logical" name="LRPA"> F  </i>
   <i type="logical" name="LNABLA"> F  </i>
   <i type="logical" name="LVEL"> F  </i>
   <i type="int" name="KINTER">     0</i>
   <i name="CSHIFT">      0.10000000</i>
   <i name="OMEGAMAX">     -1.00000000</i>
   <i name="DEG_THRESHOLD">      0.00200000</i>
   <i name="RTIME">     -0.10000000</i>
   <i name="WPLASMAI">      0.00000000</i>
   <v name="DFIELD">      0.00000000      0.00000000      0.00000000</v>
   <v name="WPLASMA">      0.00000000      0.00000000      0.00000000      0.00000000      0.00000000      0.00000000      0.00000000      0.00000000      0.00000000</v>
  </separator>
  <separator name="orbital magnetization" >
   <i type="logical" name="NUCIND"> F  </i>
   <v name="MAGPOS">      0.00000000      0.00000000      0.00000000</v>
   <i type="logical" name="LNICSALL"> T  </i>
   <i type="logical" name="ORBITALMAG"> F  </i>
   <i type="logical" name="LMAGBLOCH"> F  </i>
   <i type="logical" name="LCHIMAG"> F  </i>
   <i type="logical" name="LGAUGE"> T  </i>
   <i type="int" name="MAGATOM">     0</i>
   <v name="MAGDIPOL">      0.00000000      0.00000000      0.00000000</v>
   <v name="AVECCONST">      0.00000000      0.00000000      0.00000000</v>
  </separator>
  <separator name="response functions" >
   <i type="logical" name="LADDER"> F  </i>
   <i type="logical" name="LRPAFORCE"> F  </i>
   <i type="logical" name="LFXC"> F  </i>
   <i type="logical" name="LHARTREE"> T  </i>
   <i type="int" name="IBSE">     0</i>
   <v type="int" name="KPOINT">    -1     0     0     0</v>
   <i type="logical" name="LTCTE"> F  </i>
   <i type="logical" name="LTETE"> F  </i>
   <i type="logical" name="LTRIPLET"> F  </i>
   <i type="logical" name="LFXCEPS"> F  </i>
   <i type="logical" name="LFXHEG"> F  </i>
   <i type="int" name="NATURALO">     2</i>
   <i type="logical" name="L2ORDER"> F  </i>
   <i type="logical" name="LMP2LT"> F  </i>
   <i type="logical" name="LUSEW"> F  </i>
   <i name="ENCUTGW">     -2.00000000</i>
   <i name="ENCUTGWSOFT">     -2.00000000</i>
   <i name="ENCUTLF">     -1.00000000</i>
   <i type="int" name="LMAXMP2">    -1</i>
   <i name="SCISSOR">      0.00000000</i>
   <i type="int" name="NOMEGA">     0</i>
   <i type="int" name="NOMEGAR">     0</i>
   <i type="int" name="NBANDSGW">    -1</i>
   <i type="int" name="NBANDSO">    -1</i>
   <i type="int" name="NBANDSV">    -1</i>
   <i type="int" name="NELM">   300</i>
   <i type="int" name="NELMHF">     1</i>
   <i type="int" name="DIM">     3</i>
   <i type="int" name="ANTIRES">     0</i>
   <i name="OMEGAMAX">    -30.00000000</i>
   <i name="OMEGAMIN">    -30.00000000</i>
   <i name="OMEGATL">   -200.00000000</i>
   <i type="int" name="OMEGAGRID">   140</i>
   <i name="CSHIFT">     -0.10000000</i>
   <i type="logical" name="SELFENERGY"> F  </i>
   <i type="logical" name="LSPECTRAL"> F  </i>
   <i type="logical" name="LSPECTRALGW"> F  </i>
   <i type="logical" name="LSINGLES"> F  </i>
   <i type="logical" name="LFERMIGW"> F  </i>
   <i type="logical" name="ODDONLYGW"> F  </i>
   <i type="logical" name="EVENONLYGW"> F  </i>
   <i type="int" name="NKREDLFX">     1</i>
   <i type="int" name="NKREDLFY">     1</i>
   <i type="int" name="NKREDLFZ">     1</i>
   <i type="int" name="MAXMEM">  2800</i>
   <i type="int" name="TELESCOPE">     0</i>
   <i type="int" name="TAUPAR">     1</i>
   <i type="int" name="OMEGAPAR">    -1</i>
   <i name="LAMBDA">      1.00000000</i>
  </separator>
  <separator name="External order field" >
   <i name="OFIELD_KAPPA">      0.00000000</i>
   <v name="OFIELD_K">      0.00000000      0.00000000      0.00000000</v>
   <i name="OFIELD_Q6_NEAR">      0.00000000</i>
   <i name="OFIELD_Q6_FAR">      0.00000000</i>
   <i name="OFIELD_A">      0.00000000</i>
  </separator>
 </parameters>
 <atominfo>
  <atoms>     172 </atoms>
  <types>       3 </types>
  <array name="atoms" >
   <dimension dim="1">ion</dimension>
   <field type="string">element</field>
   <field type="int">atomtype</field>
   <set>
    <rc><c>In</c><c>   1</c></rc>
    <rc><c>In</c><c>   1</c></rc>
    <rc><c>In</c><c>   1</c></rc>
    <rc><c>In</c><c>   1</c></rc>
    <rc><c>In</c><c>   1</c></rc>
    <rc><c>In</c><c>   1</c></rc>
    <rc><c>In</c><c>   1</c></rc>
    <rc><c>In</c><c>   1</c></rc>
    <rc><c>In</c><c>   1</c></rc>
    <rc><c>In</c><c>   1</c></rc>
    <rc><c>In</c><c>   1</c></rc>
    <rc><c>In</c><c>   1</c></rc>
    <rc><c>In</c><c>   1</c></rc>
    <rc><c>In</c><c>   1</c></rc>
    <rc><c>In</c><c>   1</c></rc>
    <rc><c>In</c><c>   1</c></rc>
    <rc><c>In</c><c>   1</c></rc>
    <rc><c>In</c><c>   1</c></rc>
    <rc><c>In</c><c>   1</c></rc>
    <rc><c>In</c><c>   1</c></rc>
    <rc><c>In</c><c>   1</c></rc>
    <rc><c>In</c><c>   1</c></rc>
    <rc><c>In</c><c>   1</c></rc>
    <rc><c>In</c><c>   1</c></rc>
    <rc><c>In</c><c>   1</c></rc>
    <rc><c>In</c><c>   1</c></rc>
    <rc><c>In</c><c>   1</c></rc>
    <rc><c>In</c><c>   1</c></rc>
    <rc><c>In</c><c>   1</c></rc>
    <rc><c>In</c><c>   1</c></rc>
    <rc><c>In</c><c>   1</c></rc>
    <rc><c>In</c><c>   1</c></rc>
    <rc><c>In</c><c>   1</c></rc>
    <rc><c>In</c><c>   1</c></rc>
    <rc><c>In</c><c>   1</c></rc>
    <rc><c>In</c><c>   1</c></rc>
    <rc><c>In</c><c>   1</c></rc>
    <rc><c>In</c><c>   1</c></rc>
    <rc><c>In</c><c>   1</c></rc>
    <rc><c>In</c><c>   1</c></rc>
    <rc><c>In</c><c>   1</c></rc>
    <rc><c>In</c><c>   1</c></rc>
    <rc><c>In</c><c>   1</c></rc>
    <rc><c>In</c><c>   1</c></rc>
    <rc><c>In</c><c>   1</c></rc>
    <rc><c>In</c><c>   1</c></rc>
    <rc><c>In</c><c>   1</c></rc>
    <rc><c>In</c><c>   1</c></rc>
    <rc><c>In</c><c>   1</c></rc>
    <rc><c>In</c><c>   1</c></rc>
    <rc><c>In</c><c>   1</c></rc>
    <rc><c>In</c><c>   1</c></rc>
    <rc><c>In</c><c>   1</c></rc>
    <rc><c>In</c><c>   1</c></rc>
    <rc><c>In</c><c>   1</c></rc>
    <rc><c>In</c><c>   1</c></rc>
    <rc><c>In</c><c>   1</c></rc>
    <rc><c>In</c><c>   1</c></rc>
    <rc><c>In</c><c>   1</c></rc>
    <rc><c>In</c><c>   1</c></rc>
    <rc><c>In</c><c>   1</c></rc>
    <rc><c>In</c><c>   1</c></rc>
    <rc><c>In</c><c>   1</c></rc>
    <rc><c>In</c><c>   1</c></rc>
    <rc><c>In</c><c>   1</c></rc>
    <rc><c>In</c><c>   1</c></rc>
    <rc><c>In</c><c>   1</c></rc>
    <rc><c>In</c><c>   1</c></rc>
    <rc><c>In</c><c>   1</c></rc>
    <rc><c>In</c><c>   1</c></rc>
    <rc><c>In</c><c>   1</c></rc>
    <rc><c>In</c><c>   1</c></rc>
    <rc><c>In</c><c>   1</c></rc>
    <rc><c>In</c><c>   1</c></rc>
    <rc><c>In</c><c>   1</c></rc>
    <rc><c>In</c><c>   1</c></rc>
    <rc><c>In</c><c>   1</c></rc>
    <rc><c>In</c><c>   1</c></rc>
    <rc><c>In</c><c>   1</c></rc>
    <rc><c>In</c><c>   1</c></rc>
    <rc><c>In</c><c>   1</c></rc>
    <rc><c>In</c><c>   1</c></rc>
    <rc><c>In</c><c>   1</c></rc>
    <rc><c>In</c><c>   1</c></rc>
    <rc><c>In</c><c>   1</c></rc>
    <rc><c>In</c><c>   1</c></rc>
    <rc><c>In</c><c>   1</c></rc>
    <rc><c>In</c><c>   1</c></rc>
    <rc><c>In</c><c>   1</c></rc>
    <rc><c>In</c><c>   1</c></rc>
    <rc><c>In</c><c>   1</c></rc>
    <rc><c>In</c><c>   1</c></rc>
    <rc><c>As</c><c>   2</c></rc>
    <rc><c>As</c><c>   2</c></rc>
    <rc><c>As</c><c>   2</c></rc>
    <rc><c>As</c><c>   2</c></rc>
    <rc><c>As</c><c>   2</c></rc>
    <rc><c>As</c><c>   2</c></rc>
    <rc><c>As</c><c>   2</c></rc>
    <rc><c>As</c><c>   2</c></rc>
    <rc><c>As</c><c>   2</c></rc>
    <rc><c>As</c><c>   2</c></rc>
    <rc><c>As</c><c>   2</c></rc>
    <rc><c>As</c><c>   2</c></rc>
    <rc><c>As</c><c>   2</c></rc>
    <rc><c>As</c><c>   2</c></rc>
    <rc><c>As</c><c>   2</c></rc>
    <rc><c>As</c><c>   2</c></rc>
    <rc><c>As</c><c>   2</c></rc>
    <rc><c>As</c><c>   2</c></rc>
    <rc><c>As</c><c>   2</c></rc>
    <rc><c>As</c><c>   2</c></rc>
    <rc><c>As</c><c>   2</c></rc>
    <rc><c>As</c><c>   2</c></rc>
    <rc><c>As</c><c>   2</c></rc>
    <rc><c>As</c><c>   2</c></rc>
    <rc><c>As</c><c>   2</c></rc>
    <rc><c>As</c><c>   2</c></rc>
    <rc><c>As</c><c>   2</c></rc>
    <rc><c>As</c><c>   2</c></rc>
    <rc><c>As</c><c>   2</c></rc>
    <rc><c>As</c><c>   2</c></rc>
    <rc><c>As</c><c>   2</c></rc>
    <rc><c>As</c><c>   2</c></rc>
    <rc><c>As</c><c>   2</c></rc>
    <rc><c>As</c><c>   2</c></rc>
    <rc><c>As</c><c>   2</c></rc>
    <rc><c>As</c><c>   2</c></rc>
    <rc><c>As</c><c>   2</c></rc>
    <rc><c>As</c><c>   2</c></rc>
    <rc><c>As</c><c>   2</c></rc>
    <rc><c>As</c><c>   2</c></rc>
    <rc><c>As</c><c>   2</c></rc>
    <rc><c>As</c><c>   2</c></rc>
    <rc><c>As</c><c>   2</c></rc>
    <rc><c>As</c><c>   2</c></rc>
    <rc><c>As</c><c>   2</c></rc>
    <rc><c>As</c><c>   2</c></rc>
    <rc><c>As</c><c>   2</c></rc>
    <rc><c>As</c><c>   2</c></rc>
    <rc><c>As</c><c>   2</c></rc>
    <rc><c>As</c><c>   2</c></rc>
    <rc><c>As</c><c>   2</c></rc>
    <rc><c>As</c><c>   2</c></rc>
    <rc><c>As</c><c>   2</c></rc>
    <rc><c>As</c><c>   2</c></rc>
    <rc><c>As</c><c>   2</c></rc>
    <rc><c>As</c><c>   2</c></rc>
    <rc><c>As</c><c>   2</c></rc>
    <rc><c>As</c><c>   2</c></rc>
    <rc><c>As</c><c>   2</c></rc>
    <rc><c>As</c><c>   2</c></rc>
    <rc><c>As</c><c>   2</c></rc>
    <rc><c>As</c><c>   2</c></rc>
    <rc><c>As</c><c>   2</c></rc>
    <rc><c>As</c><c>   2</c></rc>
    <rc><c>H </c><c>   3</c></rc>
    <rc><c>H </c><c>   3</c></rc>
    <rc><c>H </c><c>   3</c></rc>
    <rc><c>H </c><c>   3</c></rc>
    <rc><c>H </c><c>   3</c></rc>
    <rc><c>H </c><c>   3</c></rc>
    <rc><c>H </c><c>   3</c></rc>
    <rc><c>H </c><c>   3</c></rc>
    <rc><c>H </c><c>   3</c></rc>
    <rc><c>H </c><c>   3</c></rc>
    <rc><c>H </c><c>   3</c></rc>
    <rc><c>H </c><c>   3</c></rc>
    <rc><c>H </c><c>   3</c></rc>
    <rc><c>H </c><c>   3</c></rc>
    <rc><c>H </c><c>   3</c></rc>
    <rc><c>H </c><c>   3</c></rc>
   </set>
  </array>
  <array name="atomtypes" >
   <dimension dim="1">type</dimension>
   <field type="int">atomspertype</field>
   <field type="string">element</field>
   <field>mass</field>
   <field>valence</field>
   <field type="string">pseudopotential</field>
   <set>
    <rc><c>  92</c><c>In</c><c>    114.82000000</c><c>     13.00000000</c><c> PAW In_d 11Feb1998                     </c></rc>
    <rc><c>  64</c><c>As</c><c>     74.92200000</c><c>      5.00000000</c><c> PAW As 03Mar1998                       </c></rc>
    <rc><c>  16</c><c>H </c><c>      1.00000000</c><c>      1.25000000</c><c> PAW H1.25 14Feb2000                    </c></rc>
   </set>
  </array>
 </atominfo>
 <structure name="initialpos" >
  <crystal>
   <varray name="basis" >
    <v>      17.03433609       0.00000000       0.00000000 </v>
    <v>      -8.51716805      14.75216779       0.00000000 </v>
    <v>       0.00000000       0.00000000      31.29407310 </v>
   </varray>
   <i name="volume">   7863.99353597 </i>
   <varray name="rec_basis" >
    <v>       0.05870496       0.03389332       0.00000000 </v>
    <v>       0.00000000       0.06778665       0.00000000 </v>
    <v>       0.00000000       0.00000000       0.03195493 </v>
   </varray>
  </crystal>
  <varray name="positions" >
   <v>       0.04889542       0.39944771       0.99568253 </v>
   <v>       0.04889542       0.89944771       0.99568253 </v>
   <v>       0.54889542       0.39944771       0.99568253 </v>
   <v>       0.54889542       0.89944771       0.99568253 </v>
   <v>       0.35055229       0.39944771       0.99568253 </v>
   <v>       0.35055229       0.89944771       0.99568253 </v>
   <v>       0.85055229       0.39944771       0.99568253 </v>
   <v>       0.85055229       0.89944771       0.99568253 </v>
   <v>       0.35055229       0.20110457       0.99568253 </v>
   <v>       0.35055229       0.70110457       0.99568253 </v>
   <v>       0.85055229       0.20110457       0.99568253 </v>
   <v>       0.85055229       0.70110457       0.99568253 </v>
   <v>       0.02661586       0.05323172       0.99490245 </v>
   <v>       0.02661586       0.55323172       0.99490245 </v>
   <v>       0.52661586       0.05323172       0.99490245 </v>
   <v>       0.52661586       0.55323172       0.99490245 </v>
   <v>       0.19676828       0.22338414       0.99490245 </v>
   <v>       0.19676828       0.72338414       0.99490245 </v>
   <v>       0.69676828       0.22338414       0.99490245 </v>
   <v>       0.69676828       0.72338414       0.99490245 </v>
   <v>       0.25000000       0.00000000       0.99493075 </v>
   <v>       0.25000000       0.50000000       0.99493075 </v>
   <v>       0.75000000       0.00000000       0.99493075 </v>
   <v>       0.75000000       0.50000000       0.99493075 </v>
   <v>       0.02661586       0.22338414       0.99490245 </v>
   <v>       0.02661586       0.72338414       0.99490245 </v>
   <v>       0.52661586       0.22338414       0.99490245 </v>
   <v>       0.52661586       0.72338414       0.99490245 </v>
   <v>       0.16687125       0.33374251       0.11114905 </v>
   <v>       0.16687125       0.83374251       0.11114905 </v>
   <v>       0.66687125       0.33374251       0.11114905 </v>
   <v>       0.66687125       0.83374251       0.11114905 </v>
   <v>       0.41625749       0.08312875       0.11114905 </v>
   <v>       0.41625749       0.58312875       0.11114905 </v>
   <v>       0.91625749       0.08312875       0.11114905 </v>
   <v>       0.91625749       0.58312875       0.11114905 </v>
   <v>       0.41666666       0.33333334       0.10951073 </v>
   <v>       0.41666666       0.83333334       0.10951073 </v>
   <v>       0.91666666       0.33333334       0.10951073 </v>
   <v>       0.91666666       0.83333334       0.10951073 </v>
   <v>       0.16687125       0.08312875       0.11114905 </v>
   <v>       0.16687125       0.58312875       0.11114905 </v>
   <v>       0.66687125       0.08312875       0.11114905 </v>
   <v>       0.66687125       0.58312875       0.11114905 </v>
   <v>       0.33333334       0.16666667       0.22222222 </v>
   <v>       0.33333334       0.66666667       0.22222222 </v>
   <v>       0.83333334       0.16666667       0.22222222 </v>
   <v>       0.83333334       0.66666667       0.22222222 </v>
   <v>       0.08333331       0.41666666       0.22222222 </v>
   <v>       0.08333331       0.91666666       0.22222222 </v>
   <v>       0.58333331       0.41666666       0.22222222 </v>
   <v>       0.58333331       0.91666666       0.22222222 </v>
   <v>       0.08333331       0.16666669       0.22222222 </v>
   <v>       0.08333331       0.66666669       0.22222222 </v>
   <v>       0.58333331       0.16666669       0.22222222 </v>
   <v>       0.58333331       0.66666669       0.22222222 </v>
   <v>       0.33333334       0.41666666       0.22222222 </v>
   <v>       0.33333334       0.91666666       0.22222222 </v>
   <v>       0.83333334       0.41666666       0.22222222 </v>
   <v>       0.83333334       0.91666666       0.22222222 </v>
   <v>       0.00000000       0.00000000       0.33333334 </v>
   <v>       0.00000000       0.50000000       0.33333334 </v>
   <v>       0.50000000       0.00000000       0.33333334 </v>
   <v>       0.50000000       0.50000000       0.33333334 </v>
   <v>       0.25000000       0.25000000       0.33333334 </v>
   <v>       0.25000000       0.75000000       0.33333334 </v>
   <v>       0.75000000       0.25000000       0.33333334 </v>
   <v>       0.75000000       0.75000000       0.33333334 </v>
   <v>       0.25000000       0.00000000       0.33333334 </v>
   <v>       0.25000000       0.50000000       0.33333334 </v>
   <v>       0.75000000       0.00000000       0.33333334 </v>
   <v>       0.75000000       0.50000000       0.33333334 </v>
   <v>       0.00000000       0.25000000       0.33333334 </v>
   <v>       0.00000000       0.75000000       0.33333334 </v>
   <v>       0.50000000       0.25000000       0.33333334 </v>
   <v>       0.50000000       0.75000000       0.33333334 </v>
   <v>       0.16666667       0.33333334       0.44444445 </v>
   <v>       0.16666667       0.83333334       0.44444445 </v>
   <v>       0.66666667       0.33333334       0.44444445 </v>
   <v>       0.66666667       0.83333334       0.44444445 </v>
   <v>       0.41666666       0.08333334       0.44444445 </v>
   <v>       0.41666666       0.58333334       0.44444445 </v>
   <v>       0.91666666       0.08333334       0.44444445 </v>
   <v>       0.91666666       0.58333334       0.44444445 </v>
   <v>       0.41666666       0.33333334       0.44444445 </v>
   <v>       0.41666666       0.83333334       0.44444445 </v>
   <v>       0.91666666       0.33333334       0.44444445 </v>
   <v>       0.91666666       0.83333334       0.44444445 </v>
   <v>       0.16666667       0.08333334       0.44444445 </v>
   <v>       0.16666667       0.58333334       0.44444445 </v>
   <v>       0.66666667       0.08333334       0.44444445 </v>
   <v>       0.66666667       0.58333334       0.44444445 </v>
   <v>       0.00108337       0.00216674       0.07972288 </v>
   <v>       0.00060404       0.50120809       0.07927097 </v>
   <v>       0.50060404       0.00120809       0.07927097 </v>
   <v>       0.50060404       0.50120809       0.07927097 </v>
   <v>       0.00060404       0.24939596       0.07927100 </v>
   <v>       0.00060404       0.74939596       0.07927100 </v>
   <v>       0.50060404       0.24939596       0.07927100 </v>
   <v>       0.50060404       0.74939596       0.07927100 </v>
   <v>       0.25000000       0.00000000       0.08094485 </v>
   <v>       0.25000000       0.50000000       0.08094485 </v>
   <v>       0.75000000       0.00000000       0.08094485 </v>
   <v>       0.75000000       0.50000000       0.08094485 </v>
   <v>       0.24879191       0.24939596       0.07927100 </v>
   <v>       0.24879191       0.74939596       0.07927100 </v>
   <v>       0.74879191       0.24939596       0.07927100 </v>
   <v>       0.74879191       0.74939596       0.07927100 </v>
   <v>       0.16660331       0.33320661       0.19452973 </v>
   <v>       0.16660331       0.83320661       0.19452973 </v>
   <v>       0.66660331       0.33320661       0.19452973 </v>
   <v>       0.66660331       0.83320661       0.19452973 </v>
   <v>       0.16660331       0.08339670       0.19452973 </v>
   <v>       0.16660331       0.58339670       0.19452973 </v>
   <v>       0.66660331       0.08339670       0.19452973 </v>
   <v>       0.66660331       0.58339670       0.19452973 </v>
   <v>       0.41666666       0.33333334       0.19342860 </v>
   <v>       0.41666666       0.83333334       0.19342860 </v>
   <v>       0.91666666       0.33333334       0.19342860 </v>
   <v>       0.91666666       0.83333334       0.19342860 </v>
   <v>       0.41679339       0.08339670       0.19452973 </v>
   <v>       0.41679339       0.58339670       0.19452973 </v>
   <v>       0.91679339       0.08339670       0.19452973 </v>
   <v>       0.91679339       0.58339670       0.19452973 </v>
   <v>       0.33333334       0.16666667       0.30555555 </v>
   <v>       0.33333334       0.66666667       0.30555555 </v>
   <v>       0.83333334       0.16666667       0.30555555 </v>
   <v>       0.83333334       0.66666667       0.30555555 </v>
   <v>       0.33333334       0.41666666       0.30555555 </v>
   <v>       0.33333334       0.91666666       0.30555555 </v>
   <v>       0.83333334       0.41666666       0.30555555 </v>
   <v>       0.83333334       0.91666666       0.30555555 </v>
   <v>       0.08333331       0.16666669       0.30555555 </v>
   <v>       0.08333331       0.66666669       0.30555555 </v>
   <v>       0.58333331       0.16666669       0.30555555 </v>
   <v>       0.58333331       0.66666669       0.30555555 </v>
   <v>       0.08333331       0.41666666       0.30555555 </v>
   <v>       0.08333331       0.91666666       0.30555555 </v>
   <v>       0.58333331       0.41666666       0.30555555 </v>
   <v>       0.58333331       0.91666666       0.30555555 </v>
   <v>       0.00000000       0.00000000       0.41666666 </v>
   <v>       0.00000000       0.50000000       0.41666666 </v>
   <v>       0.50000000       0.00000000       0.41666666 </v>
   <v>       0.50000000       0.50000000       0.41666666 </v>
   <v>       0.00000000       0.25000000       0.41666666 </v>
   <v>       0.00000000       0.75000000       0.41666666 </v>
   <v>       0.50000000       0.25000000       0.41666666 </v>
   <v>       0.50000000       0.75000000       0.41666666 </v>
   <v>       0.25000000       0.00000000       0.41666666 </v>
   <v>       0.25000000       0.50000000       0.41666666 </v>
   <v>       0.75000000       0.00000000       0.41666666 </v>
   <v>       0.75000000       0.50000000       0.41666666 </v>
   <v>       0.25000000       0.25000000       0.41666666 </v>
   <v>       0.25000000       0.75000000       0.41666666 </v>
   <v>       0.75000000       0.25000000       0.41666666 </v>
   <v>       0.75000000       0.75000000       0.41666666 </v>
   <v>       0.16666667       0.33333334       0.50007080 </v>
   <v>       0.16666667       0.83333334       0.50007080 </v>
   <v>       0.66666667       0.33333334       0.50007080 </v>
   <v>       0.66666667       0.83333334       0.50007080 </v>
   <v>       0.16666667       0.08333334       0.50007080 </v>
   <v>       0.16666667       0.58333334       0.50007080 </v>
   <v>       0.66666667       0.08333334       0.50007080 </v>
   <v>       0.66666667       0.58333334       0.50007080 </v>
   <v>       0.41666666       0.33333334       0.50007080 </v>
   <v>       0.41666666       0.83333334       0.50007080 </v>
   <v>       0.91666666       0.33333334       0.50007080 </v>
   <v>       0.91666666       0.83333334       0.50007080 </v>
   <v>       0.41666666       0.08333334       0.50007080 </v>
   <v>       0.41666666       0.58333334       0.50007080 </v>
   <v>       0.91666666       0.08333334       0.50007080 </v>
   <v>       0.91666666       0.58333334       0.50007080 </v>
  </varray>
 </structure>
 <calculation>
  <scstep>
   <time name="dav">  380.53  381.19</time>
   <time name="total">  381.24  381.92</time>
   <dipole>
    <v name="dipole">      0.00000000       0.00000000      -0.00133672 </v>
    <i name="Tr[quadrupol]"> -74894.26575090 </i>
    <i name="Echarged">      0.00000000 </i>
    <i name="Edipol_quadrupol">      0.00000000 </i>
    <i name="Eion">      0.00000000 </i>
   </dipole>
   <energy>
    <i name="alphaZ">   1768.57130123 </i>
    <i name="ewald"> 318716.16020713 </i>
    <i name="hartreedc">-467293.12149405 </i>
    <i name="XCdc">   3216.68654856 </i>
    <i name="pawpsdc"> 116446.47017590 </i>
    <i name="pawaedc">-114544.52040592 </i>
    <i name="eentropy">     -0.03847772 </i>
    <i name="bandstr">    621.96903461 </i>
    <i name="atom"> 156698.92270065 </i>
    <i name="e_fr_energy">  15631.09959039 </i>
    <i name="e_wo_entrp">  15631.13806812 </i>
    <i name="e_0_energy">  15631.11882925 </i>
   </energy>
  </scstep>
  <scstep>
   <time name="dav">  414.50  457.26</time>
   <time name="total">  414.51  457.28</time>
   <dipole>
    <v name="dipole">      0.00000000       0.00000000      -0.00133672 </v>
    <i name="Tr[quadrupol]"> -74894.26575090 </i>
    <i name="Echarged">      0.00000000 </i>
    <i name="Edipol_quadrupol">      0.00000000 </i>
    <i name="Eion">      0.00000000 </i>
   </dipole>
   <energy>
    <i name="e_fr_energy">   1767.89331953 </i>
    <i name="e_wo_entrp">   1767.93188516 </i>
    <i name="e_0_energy">   1767.91260235 </i>
   </energy>
  </scstep>
  <scstep>
   <time name="dav">  434.17  435.16</time>
   <time name="total">  434.18  435.17</time>
   <dipole>
    <v name="dipole">      0.00000000       0.00000000      -0.00133672 </v>
    <i name="Tr[quadrupol]"> -74894.26575090 </i>
    <i name="Echarged">      0.00000000 </i>
    <i name="Edipol_quadrupol">      0.00000000 </i>
    <i name="Eion">      0.00000000 </i>
   </dipole>
   <energy>
    <i name="e_fr_energy">   -525.88797019 </i>
    <i name="e_wo_entrp">   -525.87931207 </i>
    <i name="e_0_energy">   -525.88364113 </i>
   </energy>
  </scstep>
  <scstep>
   <time name="dav">  428.99  429.63</time>
   <time name="total">  429.00  429.64</time>
   <dipole>
    <v name="dipole">      0.00000000       0.00000000      -0.00133672 </v>
    <i name="Tr[quadrupol]"> -74894.26575090 </i>
    <i name="Echarged">      0.00000000 </i>
    <i name="Edipol_quadrupol">      0.00000000 </i>
    <i name="Eion">      0.00000000 </i>
   </dipole>
   <energy>
    <i name="e_fr_energy">   -721.42886690 </i>
    <i name="e_wo_entrp">   -721.41140892 </i>
    <i name="e_0_energy">   -721.42013791 </i>
   </energy>
  </scstep>
  <scstep>
   <time name="dav">  442.54  443.21</time>
   <time name="total">  449.27  449.96</time>
   <dipole>
    <v name="dipole">      0.00000000       0.00000000      -0.00133672 </v>
    <i name="Tr[quadrupol]"> -74894.26575090 </i>
    <i name="Echarged">      0.00000000 </i>
    <i name="Edipol_quadrupol">      0.00000000 </i>
    <i name="Eion">      0.00000000 </i>
   </dipole>
   <energy>
    <i name="e_fr_energy">   -730.87368243 </i>
    <i name="e_wo_entrp">   -730.85595211 </i>
    <i name="e_0_energy">   -730.86481727 </i>
   </energy>
  </scstep>
  <scstep>
   <time name="dav">  490.31  491.04</time>
   <time name="total">  501.21  501.96</time>
   <dipole>
    <v name="dipole">      0.00000000       0.00000000       1.73657037 </v>
    <i name="Tr[quadrupol]"> -74910.51970543 </i>
    <i name="Echarged">      0.00000000 </i>
    <i name="Edipol_quadrupol">      0.00000000 </i>
    <i name="Eion">      0.00000000 </i>
   </dipole>
   <energy>
    <i name="e_fr_energy">   -706.92702099 </i>
    <i name="e_wo_entrp">   -706.91748162 </i>
    <i name="e_0_energy">   -706.92225130 </i>
   </energy>
  </scstep>
  <scstep>
   <time name="dav">  494.68  495.45</time>
   <time name="total">  502.04  502.82</time>
   <dipole>
    <v name="dipole">      0.00000000       0.00000000       0.19516520 </v>
    <i name="Tr[quadrupol]"> -74913.87223882 </i>
    <i name="Echarged">      0.00000000 </i>
    <i name="Edipol_quadrupol">      0.00000000 </i>
    <i name="Eion">      0.00000000 </i>
   </dipole>
   <energy>
    <i name="e_fr_energy">   -703.75094516 </i>
    <i name="e_wo_entrp">   -703.73949370 </i>
    <i name="e_0_energy">   -703.74521943 </i>
   </energy>
  </scstep>
  <scstep>
   <time name="dav">  471.45  472.19</time>
   <time name="total">  478.96  479.71</time>
   <dipole>
    <v name="dipole">      0.00000000       0.00000000       1.35118107 </v>
    <i name="Tr[quadrupol]"> -74918.97183196 </i>
    <i name="Echarged">      0.00000000 </i>
    <i name="Edipol_quadrupol">      0.00000000 </i>
    <i name="Eion">      0.00000000 </i>
   </dipole>
   <energy>
    <i name="e_fr_energy">   -703.81693682 </i>
    <i name="e_wo_entrp">   -703.80881360 </i>
    <i name="e_0_energy">   -703.81287521 </i>
   </energy>
  </scstep>
  <scstep>
   <time name="dav">  485.55  486.31</time>
   <time name="total">  492.87  493.66</time>
   <dipole>
    <v name="dipole">      0.00000000       0.00000000       1.12647261 </v>
    <i name="Tr[quadrupol]"> -74924.60877533 </i>
    <i name="Echarged">      0.00000000 </i>
    <i name="Edipol_quadrupol">      0.00000000 </i>
    <i name="Eion">      0.00000000 </i>
   </dipole>
   <energy>
    <i name="e_fr_energy">   -703.67034887 </i>
    <i name="e_wo_entrp">   -703.66292070 </i>
    <i name="e_0_energy">   -703.66663478 </i>
   </energy>
  </scstep>
  <scstep>
   <time name="dav">  552.01  554.81</time>
   <time name="total">  559.32  562.13</time>
   <dipole>
    <v name="dipole">      0.00000000       0.00000000       1.14291926 </v>
    <i name="Tr[quadrupol]"> -74928.73346996 </i>
    <i name="Echarged">      0.00000000 </i>
    <i name="Edipol_quadrupol">      0.00000000 </i>
    <i name="Eion">      0.00000000 </i>
   </dipole>
   <energy>
    <i name="e_fr_energy">   -703.67329628 </i>
    <i name="e_wo_entrp">   -703.66593805 </i>
    <i name="e_0_energy">   -703.66961716 </i>
   </energy>
  </scstep>
  <scstep>
   <time name="dav">  473.07  473.74</time>
   <time name="total">  480.39  481.07</time>
   <dipole>
    <v name="dipole">      0.00000000       0.00000000       1.21270147 </v>
    <i name="Tr[quadrupol]"> -74930.15338318 </i>
    <i name="Echarged">      0.00000000 </i>
    <i name="Edipol_quadrupol">      0.00000000 </i>
    <i name="Eion">      0.00000000 </i>
   </dipole>
   <energy>
    <i name="e_fr_energy">   -703.68118897 </i>
    <i name="e_wo_entrp">   -703.67381022 </i>
    <i name="e_0_energy">   -703.67749960 </i>
   </energy>
  </scstep>
  <scstep>
   <time name="dav">  500.51  501.26</time>
   <time name="total">  507.82  508.58</time>
   <dipole>
    <v name="dipole">      0.00000000       0.00000000       1.23899770 </v>
    <i name="Tr[quadrupol]"> -74932.29239195 </i>
    <i name="Echarged">      0.00000000 </i>
    <i name="Edipol_quadrupol">      0.00000000 </i>
    <i name="Eion">      0.00000000 </i>
   </dipole>
   <energy>
    <i name="e_fr_energy">   -703.68553502 </i>
    <i name="e_wo_entrp">   -703.67811069 </i>
    <i name="e_0_energy">   -703.68182285 </i>
   </energy>
  </scstep>
  <scstep>
   <time name="dav">  489.31  490.07</time>
   <time name="total">  496.74  497.51</time>
   <dipole>
    <v name="dipole">      0.00000000       0.00000000       1.24421570 </v>
    <i name="Tr[quadrupol]"> -74934.77073452 </i>
    <i name="Echarged">      0.00000000 </i>
    <i name="Edipol_quadrupol">      0.00000000 </i>
    <i name="Eion">      0.00000000 </i>
   </dipole>
   <energy>
    <i name="e_fr_energy">   -703.69059129 </i>
    <i name="e_wo_entrp">   -703.68314120 </i>
    <i name="e_0_energy">   -703.68686625 </i>
   </energy>
  </scstep>
  <scstep>
   <time name="dav">  463.92  468.25</time>
   <time name="total">  471.21  475.55</time>
   <dipole>
    <v name="dipole">      0.00000000       0.00000000       1.26628207 </v>
    <i name="Tr[quadrupol]"> -74936.47484027 </i>
    <i name="Echarged">      0.00000000 </i>
    <i name="Edipol_quadrupol">      0.00000000 </i>
    <i name="Eion">      0.00000000 </i>
   </dipole>
   <energy>
    <i name="e_fr_energy">   -703.69572891 </i>
    <i name="e_wo_entrp">   -703.68828566 </i>
    <i name="e_0_energy">   -703.69200728 </i>
   </energy>
  </scstep>
  <scstep>
   <time name="dav">  463.57  469.30</time>
   <time name="total">  472.07  479.39</time>
   <dipole>
    <v name="dipole">      0.00000000       0.00000000       1.28898029 </v>
    <i name="Tr[quadrupol]"> -74938.46149817 </i>
    <i name="Echarged">      0.00000000 </i>
    <i name="Edipol_quadrupol">      0.00000000 </i>
    <i name="Eion">      0.00000000 </i>
   </dipole>
   <energy>
    <i name="e_fr_energy">   -703.70162788 </i>
    <i name="e_wo_entrp">   -703.69417859 </i>
    <i name="e_0_energy">   -703.69790323 </i>
   </energy>
  </scstep>
  <scstep>
   <time name="dav">  459.15  465.20</time>
   <time name="total">  466.48  472.54</time>
   <dipole>
    <v name="dipole">      0.00000000       0.00000000       1.30340771 </v>
    <i name="Tr[quadrupol]"> -74939.24938833 </i>
    <i name="Echarged">      0.00000000 </i>
    <i name="Edipol_quadrupol">      0.00000000 </i>
    <i name="Eion">      0.00000000 </i>
   </dipole>
   <energy>
    <i name="e_fr_energy">   -703.70371840 </i>
    <i name="e_wo_entrp">   -703.69626905 </i>
    <i name="e_0_energy">   -703.69999372 </i>
   </energy>
  </scstep>
  <scstep>
   <time name="dav">  436.25  444.62</time>
   <time name="total">  443.60  451.98</time>
   <dipole>
    <v name="dipole">      0.00000000       0.00000000       1.31982835 </v>
    <i name="Tr[quadrupol]"> -74940.21033573 </i>
    <i name="Echarged">      0.00000000 </i>
    <i name="Edipol_quadrupol">      0.00000000 </i>
    <i name="Eion">      0.00000000 </i>
   </dipole>
   <energy>
    <i name="e_fr_energy">   -703.70476237 </i>
    <i name="e_wo_entrp">   -703.69731360 </i>
    <i name="e_0_energy">   -703.70103798 </i>
   </energy>
  </scstep>
  <scstep>
   <time name="dav">  464.26  470.56</time>
   <time name="total">  471.64  478.72</time>
   <dipole>
    <v name="dipole">      0.00000000       0.00000000       1.33387750 </v>
    <i name="Tr[quadrupol]"> -74940.42642897 </i>
    <i name="Echarged">      0.00000000 </i>
    <i name="Edipol_quadrupol">      0.00000000 </i>
    <i name="Eion">      0.00000000 </i>
   </dipole>
   <energy>
    <i name="e_fr_energy">   -703.70529302 </i>
    <i name="e_wo_entrp">   -703.69784364 </i>
    <i name="e_0_energy">   -703.70156833 </i>
   </energy>
  </scstep>
  <scstep>
   <time name="dav">  507.71  516.48</time>
   <time name="total">  515.44  524.22</time>
   <dipole>
    <v name="dipole">      0.00000000       0.00000000       1.34747838 </v>
    <i name="Tr[quadrupol]"> -74940.63729113 </i>
    <i name="Echarged">      0.00000000 </i>
    <i name="Edipol_quadrupol">      0.00000000 </i>
    <i name="Eion">      0.00000000 </i>
   </dipole>
   <energy>
    <i name="e_fr_energy">   -703.70581059 </i>
    <i name="e_wo_entrp">   -703.69836096 </i>
    <i name="e_0_energy">   -703.70208577 </i>
   </energy>
  </scstep>
  <scstep>
   <time name="dav">  460.16  466.38</time>
   <time name="total">  467.50  473.72</time>
   <dipole>
    <v name="dipole">      0.00000000       0.00000000       1.36552898 </v>
    <i name="Tr[quadrupol]"> -74940.68858756 </i>
    <i name="Echarged">      0.00000000 </i>
    <i name="Edipol_quadrupol">      0.00000000 </i>
    <i name="Eion">      0.00000000 </i>
   </dipole>
   <energy>
    <i name="e_fr_energy">   -703.70626522 </i>
    <i name="e_wo_entrp">   -703.69881390 </i>
    <i name="e_0_energy">   -703.70253956 </i>
   </energy>
  </scstep>
  <scstep>
   <time name="dav">  438.78  446.93</time>
   <time name="total">  446.13  454.29</time>
   <dipole>
    <v name="dipole">      0.00000000       0.00000000       1.37496529 </v>
    <i name="Tr[quadrupol]"> -74940.78060163 </i>
    <i name="Echarged">      0.00000000 </i>
    <i name="Edipol_quadrupol">      0.00000000 </i>
    <i name="Eion">      0.00000000 </i>
   </dipole>
   <energy>
    <i name="e_fr_energy">   -703.70641864 </i>
    <i name="e_wo_entrp">   -703.69896573 </i>
    <i name="e_0_energy">   -703.70269218 </i>
   </energy>
  </scstep>
  <scstep>
   <time name="dav">  439.41  445.10</time>
   <time name="total">  447.47  453.16</time>
   <dipole>
    <v name="dipole">      0.00000000       0.00000000       1.38505810 </v>
    <i name="Tr[quadrupol]"> -74940.90180234 </i>
    <i name="Echarged">      0.00000000 </i>
    <i name="Edipol_quadrupol">      0.00000000 </i>
    <i name="Eion">      0.00000000 </i>
   </dipole>
   <energy>
    <i name="e_fr_energy">   -703.70660736 </i>
    <i name="e_wo_entrp">   -703.69915313 </i>
    <i name="e_0_energy">   -703.70288024 </i>
   </energy>
  </scstep>
  <scstep>
   <time name="dav">  421.06  428.80</time>
   <time name="total">  428.53  436.28</time>
   <dipole>
    <v name="dipole">      0.00000000       0.00000000       1.38824758 </v>
    <i name="Tr[quadrupol]"> -74940.75699995 </i>
    <i name="Echarged">      0.00000000 </i>
    <i name="Edipol_quadrupol">      0.00000000 </i>
    <i name="Eion">      0.00000000 </i>
   </dipole>
   <energy>
    <i name="e_fr_energy">   -703.70669292 </i>
    <i name="e_wo_entrp">   -703.69923905 </i>
    <i name="e_0_energy">   -703.70296599 </i>
   </energy>
  </scstep>
  <scstep>
   <time name="dav">  504.76  514.18</time>
   <time name="total">  513.08  522.52</time>
   <dipole>
    <v name="dipole">      0.00000000       0.00000000       1.39494776 </v>
    <i name="Tr[quadrupol]"> -74943.14298786 </i>
    <i name="Echarged">      0.00000000 </i>
    <i name="Edipol_quadrupol">      0.00000000 </i>
    <i name="Eion">      0.00000000 </i>
   </dipole>
   <energy>
    <i name="e_fr_energy">   -703.70673396 </i>
    <i name="e_wo_entrp">   -703.69928037 </i>
    <i name="e_0_energy">   -703.70300717 </i>
   </energy>
  </scstep>
  <scstep>
   <time name="dav">  413.19  419.25</time>
   <time name="total">  421.96  428.02</time>
   <dipole>
    <v name="dipole">      0.00000000       0.00000000       1.39362740 </v>
    <i name="Tr[quadrupol]"> -74944.06350957 </i>
    <i name="Echarged">      0.00000000 </i>
    <i name="Edipol_quadrupol">      0.00000000 </i>
    <i name="Eion">      0.00000000 </i>
   </dipole>
   <energy>
    <i name="e_fr_energy">   -703.70674489 </i>
    <i name="e_wo_entrp">   -703.69929145 </i>
    <i name="e_0_energy">   -703.70301817 </i>
   </energy>
  </scstep>
  <scstep>
   <time name="dav">  408.36  413.80</time>
   <time name="total">  415.81  421.26</time>
   <dipole>
    <v name="dipole">      0.00000000       0.00000000       1.39083651 </v>
    <i name="Tr[quadrupol]"> -74944.07059386 </i>
    <i name="Echarged">      0.00000000 </i>
    <i name="Edipol_quadrupol">      0.00000000 </i>
    <i name="Eion">      0.00000000 </i>
   </dipole>
   <energy>
    <i name="e_fr_energy">   -703.70675334 </i>
    <i name="e_wo_entrp">   -703.69929952 </i>
    <i name="e_0_energy">   -703.70302643 </i>
   </energy>
  </scstep>
  <scstep>
   <time name="dav">  477.15  484.72</time>
   <time name="total">  485.41  492.99</time>
   <dipole>
    <v name="dipole">      0.00000000       0.00000000       1.39086491 </v>
    <i name="Tr[quadrupol]"> -74944.25075166 </i>
    <i name="Echarged">      0.00000000 </i>
    <i name="Edipol_quadrupol">      0.00000000 </i>
    <i name="Eion">      0.00000000 </i>
   </dipole>
   <energy>
    <i name="e_fr_energy">   -703.70675467 </i>
    <i name="e_wo_entrp">   -703.69930045 </i>
    <i name="e_0_energy">   -703.70302756 </i>
   </energy>
  </scstep>
  <scstep>
   <time name="dav">  468.71  475.60</time>
   <time name="total">  476.15  483.05</time>
   <dipole>
    <v name="dipole">      0.00000000       0.00000000       1.39060011 </v>
    <i name="Tr[quadrupol]"> -74944.25136522 </i>
    <i name="Echarged">      0.00000000 </i>
    <i name="Edipol_quadrupol">      0.00000000 </i>
    <i name="Eion">      0.00000000 </i>
   </dipole>
   <energy>
    <i name="e_fr_energy">   -703.70675564 </i>
    <i name="e_wo_entrp">   -703.69930131 </i>
    <i name="e_0_energy">   -703.70302847 </i>
   </energy>
  </scstep>
  <scstep>
   <time name="dav">  334.85  339.46</time>
   <time name="total">  342.31  346.93</time>
   <dipole>
    <v name="dipole">      0.00000000       0.00000000       1.39090335 </v>
    <i name="Tr[quadrupol]"> -74944.43235017 </i>
    <i name="Echarged">      0.00000000 </i>
    <i name="Edipol_quadrupol">      0.00000000 </i>
    <i name="Eion">      0.00000000 </i>
   </dipole>
   <energy>
    <i name="e_fr_energy">   -703.70675537 </i>
    <i name="e_wo_entrp">   -703.69930111 </i>
    <i name="e_0_energy">   -703.70302824 </i>
   </energy>
  </scstep>
  <scstep>
   <time name="dav">  364.18  369.07</time>
   <time name="total">  371.65  376.54</time>
   <dipole>
    <v name="dipole">      0.00000000       0.00000000       1.39106219 </v>
    <i name="Tr[quadrupol]"> -74944.61495640 </i>
    <i name="Echarged">      0.00000000 </i>
    <i name="Edipol_quadrupol">      0.00000000 </i>
    <i name="Eion">      0.00000000 </i>
   </dipole>
   <energy>
    <i name="e_fr_energy">   -703.70675586 </i>
    <i name="e_wo_entrp">   -703.69930168 </i>
    <i name="e_0_energy">   -703.70302877 </i>
   </energy>
  </scstep>
  <scstep>
   <time name="dav">  415.85  422.57</time>
   <time name="total">  423.28  430.01</time>
   <dipole>
    <v name="dipole">      0.00000000       0.00000000       1.39050799 </v>
    <i name="Tr[quadrupol]"> -74944.43529946 </i>
    <i name="Echarged">      0.00000000 </i>
    <i name="Edipol_quadrupol">      0.00000000 </i>
    <i name="Eion">      0.00000000 </i>
   </dipole>
   <energy>
    <i name="e_fr_energy">   -703.70675680 </i>
    <i name="e_wo_entrp">   -703.69930254 </i>
    <i name="e_0_energy">   -703.70302967 </i>
   </energy>
  </scstep>
  <scstep>
   <time name="dav">  390.96  397.52</time>
   <time name="total">  400.29  406.86</time>
   <dipole>
    <v name="dipole">      0.00000000       0.00000000       1.39046917 </v>
    <i name="Tr[quadrupol]"> -74944.43547901 </i>
    <i name="Echarged">      0.00000000 </i>
    <i name="Edipol_quadrupol">      0.00000000 </i>
    <i name="Eion">      0.00000000 </i>
   </dipole>
   <energy>
    <i name="e_fr_energy">   -703.70675686 </i>
    <i name="e_wo_entrp">   -703.69930260 </i>
    <i name="e_0_energy">   -703.70302973 </i>
   </energy>
  </scstep>
  <scstep>
   <time name="dav">  278.10  281.97</time>
   <time name="total">  278.74  282.61</time>
   <dipole>
    <v name="dipole">      0.00000000       0.00000000       1.39047109 </v>
    <i name="Tr[quadrupol]"> -74944.43545850 </i>
    <i name="Echarged">      0.00000000 </i>
    <i name="Edipol_quadrupol">      0.00000000 </i>
    <i name="Eion">      0.00000000 </i>
   </dipole>
   <energy>
    <i name="alphaZ">   1795.18895203 </i>
    <i name="ewald"> 318716.16020713 </i>
    <i name="hartreedc">-467553.20055688 </i>
    <i name="XCdc">   3224.69578111 </i>
    <i name="pawpsdc"> 119805.49738188 </i>
    <i name="pawaedc">-118011.72675520 </i>
    <i name="eentropy">     -0.00745426 </i>
    <i name="bandstr"> -15379.23701332 </i>
    <i name="atom"> 156698.92270065 </i>
    <i name="e_fr_energy">   -703.70675686 </i>
    <i name="e_wo_entrp">   -703.69930260 </i>
    <i name="e_0_energy">   -703.70302973 </i>
   </energy>
  </scstep>
  <structure>
   <crystal>
    <varray name="basis" >
     <v>      17.03433609       0.00000000       0.00000000 </v>
     <v>      -8.51716805      14.75216779       0.00000000 </v>
     <v>       0.00000000       0.00000000      31.29407310 </v>
    </varray>
    <i name="volume">   7863.99353597 </i>
    <varray name="rec_basis" >
     <v>       0.05870496       0.03389332       0.00000000 </v>
     <v>       0.00000000       0.06778665       0.00000000 </v>
     <v>       0.00000000       0.00000000       0.03195493 </v>
    </varray>
   </crystal>
   <varray name="positions" >
    <v>       0.04889542       0.39944771       0.99568253 </v>
    <v>       0.04889542       0.89944771       0.99568253 </v>
    <v>       0.54889542       0.39944771       0.99568253 </v>
    <v>       0.54889542       0.89944771       0.99568253 </v>
    <v>       0.35055229       0.39944771       0.99568253 </v>
    <v>       0.35055229       0.89944771       0.99568253 </v>
    <v>       0.85055229       0.39944771       0.99568253 </v>
    <v>       0.85055229       0.89944771       0.99568253 </v>
    <v>       0.35055229       0.20110457       0.99568253 </v>
    <v>       0.35055229       0.70110457       0.99568253 </v>
    <v>       0.85055229       0.20110457       0.99568253 </v>
    <v>       0.85055229       0.70110457       0.99568253 </v>
    <v>       0.02661586       0.05323172       0.99490245 </v>
    <v>       0.02661586       0.55323172       0.99490245 </v>
    <v>       0.52661586       0.05323172       0.99490245 </v>
    <v>       0.52661586       0.55323172       0.99490245 </v>
    <v>       0.19676828       0.22338414       0.99490245 </v>
    <v>       0.19676828       0.72338414       0.99490245 </v>
    <v>       0.69676828       0.22338414       0.99490245 </v>
    <v>       0.69676828       0.72338414       0.99490245 </v>
    <v>       0.25000000       0.00000000       0.99493075 </v>
    <v>       0.25000000       0.50000000       0.99493075 </v>
    <v>       0.75000000       0.00000000       0.99493075 </v>
    <v>       0.75000000       0.50000000       0.99493075 </v>
    <v>       0.02661586       0.22338414       0.99490245 </v>
    <v>       0.02661586       0.72338414       0.99490245 </v>
    <v>       0.52661586       0.22338414       0.99490245 </v>
    <v>       0.52661586       0.72338414       0.99490245 </v>
    <v>       0.16687125       0.33374251       0.11114905 </v>
    <v>       0.16687125       0.83374251       0.11114905 </v>
    <v>       0.66687125       0.33374251       0.11114905 </v>
    <v>       0.66687125       0.83374251       0.11114905 </v>
    <v>       0.41625749       0.08312875       0.11114905 </v>
    <v>       0.41625749       0.58312875       0.11114905 </v>
    <v>       0.91625749       0.08312875       0.11114905 </v>
    <v>       0.91625749       0.58312875       0.11114905 </v>
    <v>       0.41666666       0.33333334       0.10951073 </v>
    <v>       0.41666666       0.83333334       0.10951073 </v>
    <v>       0.91666666       0.33333334       0.10951073 </v>
    <v>       0.91666666       0.83333334       0.10951073 </v>
    <v>       0.16687125       0.08312875       0.11114905 </v>
    <v>       0.16687125       0.58312875       0.11114905 </v>
    <v>       0.66687125       0.08312875       0.11114905 </v>
    <v>       0.66687125       0.58312875       0.11114905 </v>
    <v>       0.33333334       0.16666667       0.22222222 </v>
    <v>       0.33333334       0.66666667       0.22222222 </v>
    <v>       0.83333334       0.16666667       0.22222222 </v>
    <v>       0.83333334       0.66666667       0.22222222 </v>
    <v>       0.08333331       0.41666666       0.22222222 </v>
    <v>       0.08333331       0.91666666       0.22222222 </v>
    <v>       0.58333331       0.41666666       0.22222222 </v>
    <v>       0.58333331       0.91666666       0.22222222 </v>
    <v>       0.08333331       0.16666669       0.22222222 </v>
    <v>       0.08333331       0.66666669       0.22222222 </v>
    <v>       0.58333331       0.16666669       0.22222222 </v>
    <v>       0.58333331       0.66666669       0.22222222 </v>
    <v>       0.33333334       0.41666666       0.22222222 </v>
    <v>       0.33333334       0.91666666       0.22222222 </v>
    <v>       0.83333334       0.41666666       0.22222222 </v>
    <v>       0.83333334       0.91666666       0.22222222 </v>
    <v>       0.00000000       0.00000000       0.33333334 </v>
    <v>       0.00000000       0.50000000       0.33333334 </v>
    <v>       0.50000000       0.00000000       0.33333334 </v>
    <v>       0.50000000       0.50000000       0.33333334 </v>
    <v>       0.25000000       0.25000000       0.33333334 </v>
    <v>       0.25000000       0.75000000       0.33333334 </v>
    <v>       0.75000000       0.25000000       0.33333334 </v>
    <v>       0.75000000       0.75000000       0.33333334 </v>
    <v>       0.25000000       0.00000000       0.33333334 </v>
    <v>       0.25000000       0.50000000       0.33333334 </v>
    <v>       0.75000000       0.00000000       0.33333334 </v>
    <v>       0.75000000       0.50000000       0.33333334 </v>
    <v>       0.00000000       0.25000000       0.33333334 </v>
    <v>       0.00000000       0.75000000       0.33333334 </v>
    <v>       0.50000000       0.25000000       0.33333334 </v>
    <v>       0.50000000       0.75000000       0.33333334 </v>
    <v>       0.16666667       0.33333334       0.44444445 </v>
    <v>       0.16666667       0.83333334       0.44444445 </v>
    <v>       0.66666667       0.33333334       0.44444445 </v>
    <v>       0.66666667       0.83333334       0.44444445 </v>
    <v>       0.41666666       0.08333334       0.44444445 </v>
    <v>       0.41666666       0.58333334       0.44444445 </v>
    <v>       0.91666666       0.08333334       0.44444445 </v>
    <v>       0.91666666       0.58333334       0.44444445 </v>
    <v>       0.41666666       0.33333334       0.44444445 </v>
    <v>       0.41666666       0.83333334       0.44444445 </v>
    <v>       0.91666666       0.33333334       0.44444445 </v>
    <v>       0.91666666       0.83333334       0.44444445 </v>
    <v>       0.16666667       0.08333334       0.44444445 </v>
    <v>       0.16666667       0.58333334       0.44444445 </v>
    <v>       0.66666667       0.08333334       0.44444445 </v>
    <v>       0.66666667       0.58333334       0.44444445 </v>
    <v>       0.00108337       0.00216674       0.07972288 </v>
    <v>       0.00060404       0.50120809       0.07927097 </v>
    <v>       0.50060404       0.00120809       0.07927097 </v>
    <v>       0.50060404       0.50120809       0.07927097 </v>
    <v>       0.00060404       0.24939596       0.07927100 </v>
    <v>       0.00060404       0.74939596       0.07927100 </v>
    <v>       0.50060404       0.24939596       0.07927100 </v>
    <v>       0.50060404       0.74939596       0.07927100 </v>
    <v>       0.25000000       0.00000000       0.08094485 </v>
    <v>       0.25000000       0.50000000       0.08094485 </v>
    <v>       0.75000000       0.00000000       0.08094485 </v>
    <v>       0.75000000       0.50000000       0.08094485 </v>
    <v>       0.24879191       0.24939596       0.07927100 </v>
    <v>       0.24879191       0.74939596       0.07927100 </v>
    <v>       0.74879191       0.24939596       0.07927100 </v>
    <v>       0.74879191       0.74939596       0.07927100 </v>
    <v>       0.16660331       0.33320661       0.19452973 </v>
[...]
       <r>    -6.2412    17.9474  1058.4294 </r>
       <r>    -6.1706    18.2053  1059.7146 </r>
       <r>    -6.1000     1.4199  1059.8149 </r>
       <r>    -6.0294    13.1852  1060.7457 </r>
       <r>    -5.9588    66.1184  1065.4135 </r>
       <r>    -5.8882    88.8754  1071.6879 </r>
       <r>    -5.8176    62.6993  1076.1144 </r>
       <r>    -5.7470    44.0173  1079.2219 </r>
       <r>    -5.6764    59.5454  1083.4257 </r>
       <r>    -5.6058    71.4189  1088.4677 </r>
       <r>    -5.5352    88.2038  1094.6947 </r>
       <r>    -5.4646    90.9616  1101.1163 </r>
       <r>    -5.3940    65.4758  1105.7388 </r>
       <r>    -5.3234   113.0775  1113.7218 </r>
       <r>    -5.2528   128.4118  1122.7874 </r>
       <r>    -5.1822   109.4204  1130.5122 </r>
       <r>    -5.1116   102.7925  1137.7691 </r>
       <r>    -5.0410    68.4741  1142.6033 </r>
       <r>    -4.9704    47.3113  1145.9433 </r>
       <r>    -4.8998    80.2456  1151.6085 </r>
       <r>    -4.8292    76.7003  1157.0234 </r>
       <r>    -4.7586    58.9758  1161.1869 </r>
       <r>    -4.6880    77.6646  1166.6699 </r>
       <r>    -4.6174    65.0204  1171.2602 </r>
       <r>    -4.5468    69.2403  1176.1484 </r>
       <r>    -4.4762    38.6551  1178.8773 </r>
       <r>    -4.4056    12.3205  1179.7471 </r>
       <r>    -4.3350    47.3676  1183.0912 </r>
       <r>    -4.2644    25.5116  1184.8922 </r>
       <r>    -4.1938    20.9135  1186.3687 </r>
       <r>    -4.1232    12.6566  1187.2622 </r>
       <r>    -4.0526    15.3991  1188.3494 </r>
       <r>    -3.9820    13.7799  1189.3222 </r>
       <r>    -3.9114     4.9089  1189.6687 </r>
       <r>    -3.8408    26.6569  1191.5507 </r>
       <r>    -3.7702    58.3890  1195.6728 </r>
       <r>    -3.6996    41.5089  1198.6032 </r>
       <r>    -3.6290    39.3931  1201.3843 </r>
       <r>    -3.5585    19.8281  1202.7841 </r>
       <r>    -3.4879    18.8663  1204.1160 </r>
       <r>    -3.4173    27.5613  1206.0618 </r>
       <r>    -3.3467    29.0764  1208.1145 </r>
       <r>    -3.2761    23.0945  1209.7449 </r>
       <r>    -3.2055    53.0758  1213.4920 </r>
       <r>    -3.1349   139.9370  1223.3712 </r>
       <r>    -3.0643    98.4857  1230.3241 </r>
       <r>    -2.9937    73.7734  1235.5323 </r>
       <r>    -2.9231    23.0842  1237.1620 </r>
       <r>    -2.8525    41.0895  1240.0628 </r>
       <r>    -2.7819    42.5978  1243.0701 </r>
       <r>    -2.7113    61.7771  1247.4315 </r>
       <r>    -2.6407    55.9555  1251.3818 </r>
       <r>    -2.5701    71.1909  1256.4077 </r>
       <r>    -2.4995    94.8514  1263.1040 </r>
       <r>    -2.4289   134.0941  1272.5707 </r>
       <r>    -2.3583   138.2076  1282.3279 </r>
       <r>    -2.2877   107.6850  1289.9302 </r>
       <r>    -2.2171    67.6813  1294.7084 </r>
       <r>    -2.1465    70.3096  1299.6721 </r>
       <r>    -2.0759    87.0038  1305.8143 </r>
       <r>    -2.0053    98.9681  1312.8012 </r>
       <r>    -1.9347   124.1653  1321.5670 </r>
       <r>    -1.8641   150.0006  1332.1567 </r>
       <r>    -1.7935   139.8043  1342.0266 </r>
       <r>    -1.7229   141.3971  1352.0089 </r>
       <r>    -1.6523   112.3347  1359.9395 </r>
       <r>    -1.5817   120.9505  1368.4783 </r>
       <r>    -1.5111   163.2773  1380.0054 </r>
       <r>    -1.4405   131.2316  1389.2700 </r>
       <r>    -1.3699    57.0973  1393.3010 </r>
       <r>    -1.2993   100.0149  1400.3618 </r>
       <r>    -1.2287   109.3432  1408.0812 </r>
       <r>    -1.1581   121.2599  1416.6418 </r>
       <r>    -1.0875   129.6162  1425.7924 </r>
       <r>    -1.0169   137.9335  1435.5302 </r>
       <r>    -0.9463   112.6521  1443.4832 </r>
       <r>    -0.8757   103.6497  1450.8007 </r>
       <r>    -0.8051    90.0065  1457.1549 </r>
       <r>    -0.7345    97.6704  1464.0502 </r>
       <r>    -0.6639   109.2921  1471.7660 </r>
       <r>    -0.5933   128.0211  1480.8040 </r>
       <r>    -0.5227   114.4325  1488.8827 </r>
       <r>    -0.4521    95.8648  1495.6505 </r>
       <r>    -0.3816    63.7612  1500.1519 </r>
       <r>    -0.3110   100.1687  1507.2236 </r>
       <r>    -0.2404    72.3395  1512.3306 </r>
       <r>    -0.1698    45.1078  1515.5151 </r>
       <r>    -0.0992    34.4688  1517.9485 </r>
       <r>    -0.0286    44.7268  1521.1061 </r>
       <r>     0.0420    26.3705  1522.9678 </r>
       <r>     0.1126    31.8978  1525.2198 </r>
       <r>     0.1832    18.4476  1526.5221 </r>
       <r>     0.2538    22.1871  1528.0885 </r>
       <r>     0.3244    19.9583  1529.4975 </r>
       <r>     0.3950    25.2603  1531.2808 </r>
       <r>     0.4656    17.8339  1532.5398 </r>
       <r>     0.5362    22.7745  1534.1477 </r>
       <r>     0.6068    13.6708  1535.1128 </r>
       <r>     0.6774     4.1962  1535.4090 </r>
       <r>     0.7480     2.0322  1535.5525 </r>
       <r>     0.8186     0.6871  1535.6010 </r>
       <r>     0.8892     4.4728  1535.9168 </r>
       <r>     0.9598    10.2732  1536.6421 </r>
       <r>     1.0304    28.4635  1538.6515 </r>
       <r>     1.1010    30.3115  1540.7914 </r>
       <r>     1.1716    18.6194  1542.1059 </r>
       <r>     1.2422    10.1263  1542.8208 </r>
       <r>     1.3128     1.4835  1542.9255 </r>
       <r>     1.3834    14.3296  1543.9372 </r>
       <r>     1.4540    60.5460  1548.2116 </r>
       <r>     1.5246    50.9989  1551.8120 </r>
       <r>     1.5952    16.8438  1553.0011 </r>
       <r>     1.6658    31.3935  1555.2174 </r>
       <r>     1.7364    49.8216  1558.7347 </r>
       <r>     1.8070    58.9005  1562.8930 </r>
       <r>     1.8776    54.0521  1566.7089 </r>
       <r>     1.9482    56.5433  1570.7008 </r>
       <r>     2.0188    35.1676  1573.1835 </r>
       <r>     2.0894    43.1100  1576.2270 </r>
       <r>     2.1600    32.7000  1578.5355 </r>
       <r>     2.2306    72.6840  1583.6668 </r>
       <r>     2.3012    86.4855  1589.7725 </r>
       <r>     2.3718   110.6035  1597.5809 </r>
       <r>     2.4424   117.6827  1605.8890 </r>
       <r>     2.5130    85.3921  1611.9175 </r>
       <r>     2.5836   104.2304  1619.2759 </r>
       <r>     2.6542   117.8606  1627.5966 </r>
       <r>     2.7247    96.3454  1634.3984 </r>
       <r>     2.7953   115.2867  1642.5374 </r>
       <r>     2.8659   120.5608  1651.0487 </r>
       <r>     2.9365   119.5767  1659.4906 </r>
       <r>     3.0071   115.9974  1667.6797 </r>
       <r>     3.0777   161.8032  1679.1027 </r>
       <r>     3.1483   107.7501  1686.7096 </r>
       <r>     3.2189    97.9946  1693.6278 </r>
       <r>     3.2895    78.6939  1699.1834 </r>
       <r>     3.3601    87.6029  1705.3679 </r>
       <r>     3.4307   111.0510  1713.2079 </r>
       <r>     3.5013    86.9095  1719.3435 </r>
       <r>     3.5719    75.0753  1724.6437 </r>
       <r>     3.6425    81.6341  1730.4068 </r>
       <r>     3.7131    57.5283  1734.4682 </r>
       <r>     3.7837    73.5625  1739.6616 </r>
       <r>     3.8543    81.9753  1745.4488 </r>
       <r>     3.9249   107.8600  1753.0635 </r>
       <r>     3.9955   119.9005  1761.5282 </r>
       <r>     4.0661   103.8085  1768.8568 </r>
       <r>     4.1367    85.9249  1774.9230 </r>
       <r>     4.2073    84.1720  1780.8653 </r>
       <r>     4.2779    96.5859  1787.6840 </r>
       <r>     4.3485    62.5587  1792.1006 </r>
       <r>     4.4191    91.2390  1798.5418 </r>
       <r>     4.4897    98.6658  1805.5074 </r>
       <r>     4.5603    82.6472  1811.3421 </r>
       <r>     4.6309   130.0272  1820.5217 </r>
       <r>     4.7015   130.9362  1829.7655 </r>
       <r>     4.7721   123.7985  1838.5054 </r>
       <r>     4.8427   106.8125  1846.0462 </r>
       <r>     4.9133    26.5340  1847.9194 </r>
       <r>     4.9839     1.1382  1847.9998 </r>
       <r>     5.0545     0.0035  1848.0000 </r>
       <r>     5.1251     0.0000  1848.0000 </r>
       <r>     5.1957     0.0000  1848.0000 </r>
       <r>     5.2663     0.0000  1848.0000 </r>
       <r>     5.3369     0.0000  1848.0000 </r>
       <r>     5.4075     0.0000  1848.0000 </r>
       <r>     5.4781     0.0000  1848.0000 </r>
       <r>     5.5487     0.0000  1848.0000 </r>
       <r>     5.6193     0.0000  1848.0000 </r>
       <r>     5.6899     0.0000  1848.0000 </r>
       <r>     5.7605     0.0000  1848.0000 </r>
       <r>     5.8311     0.0000  1848.0000 </r>
      </set>
     </set>
    </array>
   </total>
  </dos>
 </calculation>
 <structure name="finalpos" >
  <crystal>
   <varray name="basis" >
    <v>      17.03433609       0.00000000       0.00000000 </v>
    <v>      -8.51716805      14.75216779       0.00000000 </v>
    <v>       0.00000000       0.00000000      31.29407310 </v>
   </varray>
   <i name="volume">   7863.99353597 </i>
   <varray name="rec_basis" >
    <v>       0.05870496       0.03389332       0.00000000 </v>
    <v>       0.00000000       0.06778665       0.00000000 </v>
    <v>       0.00000000       0.00000000       0.03195493 </v>
   </varray>
  </crystal>
  <varray name="positions" >
   <v>       0.04889542       0.39944771       0.99568253 </v>
   <v>       0.04889542       0.89944771       0.99568253 </v>
   <v>       0.54889542       0.39944771       0.99568253 </v>
   <v>       0.54889542       0.89944771       0.99568253 </v>
   <v>       0.35055229       0.39944771       0.99568253 </v>
   <v>       0.35055229       0.89944771       0.99568253 </v>
   <v>       0.85055229       0.39944771       0.99568253 </v>
   <v>       0.85055229       0.89944771       0.99568253 </v>
   <v>       0.35055229       0.20110457       0.99568253 </v>
   <v>       0.35055229       0.70110457       0.99568253 </v>
   <v>       0.85055229       0.20110457       0.99568253 </v>
   <v>       0.85055229       0.70110457       0.99568253 </v>
   <v>       0.02661586       0.05323172       0.99490245 </v>
   <v>       0.02661586       0.55323172       0.99490245 </v>
   <v>       0.52661586       0.05323172       0.99490245 </v>
   <v>       0.52661586       0.55323172       0.99490245 </v>
   <v>       0.19676828       0.22338414       0.99490245 </v>
   <v>       0.19676828       0.72338414       0.99490245 </v>
   <v>       0.69676828       0.22338414       0.99490245 </v>
   <v>       0.69676828       0.72338414       0.99490245 </v>
   <v>       0.25000000       0.00000000       0.99493075 </v>
   <v>       0.25000000       0.50000000       0.99493075 </v>
   <v>       0.75000000       0.00000000       0.99493075 </v>
   <v>       0.75000000       0.50000000       0.99493075 </v>
   <v>       0.02661586       0.22338414       0.99490245 </v>
   <v>       0.02661586       0.72338414       0.99490245 </v>
   <v>       0.52661586       0.22338414       0.99490245 </v>
   <v>       0.52661586       0.72338414       0.99490245 </v>
   <v>       0.16687125       0.33374251       0.11114905 </v>
   <v>       0.16687125       0.83374251       0.11114905 </v>
   <v>       0.66687125       0.33374251       0.11114905 </v>
   <v>       0.66687125       0.83374251       0.11114905 </v>
   <v>       0.41625749       0.08312875       0.11114905 </v>
   <v>       0.41625749       0.58312875       0.11114905 </v>
   <v>       0.91625749       0.08312875       0.11114905 </v>
   <v>       0.91625749       0.58312875       0.11114905 </v>
   <v>       0.41666666       0.33333334       0.10951073 </v>
   <v>       0.41666666       0.83333334       0.10951073 </v>
   <v>       0.91666666       0.33333334       0.10951073 </v>
   <v>       0.91666666       0.83333334       0.10951073 </v>
   <v>       0.16687125       0.08312875       0.11114905 </v>
   <v>       0.16687125       0.58312875       0.11114905 </v>
   <v>       0.66687125       0.08312875       0.11114905 </v>
   <v>       0.66687125       0.58312875       0.11114905 </v>
   <v>       0.33333334       0.16666667       0.22222222 </v>
   <v>       0.33333334       0.66666667       0.22222222 </v>
   <v>       0.83333334       0.16666667       0.22222222 </v>
   <v>       0.83333334       0.66666667       0.22222222 </v>
   <v>       0.08333331       0.41666666       0.22222222 </v>
   <v>       0.08333331       0.91666666       0.22222222 </v>
   <v>       0.58333331       0.41666666       0.22222222 </v>
   <v>       0.58333331       0.91666666       0.22222222 </v>
   <v>       0.08333331       0.16666669       0.22222222 </v>
   <v>       0.08333331       0.66666669       0.22222222 </v>
   <v>       0.58333331       0.16666669       0.22222222 </v>
   <v>       0.58333331       0.66666669       0.22222222 </v>
   <v>       0.33333334       0.41666666       0.22222222 </v>
   <v>       0.33333334       0.91666666       0.22222222 </v>
   <v>       0.83333334       0.41666666       0.22222222 </v>
   <v>       0.83333334       0.91666666       0.22222222 </v>
   <v>       0.00000000       0.00000000       0.33333334 </v>
   <v>       0.00000000       0.50000000       0.33333334 </v>
   <v>       0.50000000       0.00000000       0.33333334 </v>
   <v>       0.50000000       0.50000000       0.33333334 </v>
   <v>       0.25000000       0.25000000       0.33333334 </v>
   <v>       0.25000000       0.75000000       0.33333334 </v>
   <v>       0.75000000       0.25000000       0.33333334 </v>
   <v>       0.75000000       0.75000000       0.33333334 </v>
   <v>       0.25000000       0.00000000       0.33333334 </v>
   <v>       0.25000000       0.50000000       0.33333334 </v>
   <v>       0.75000000       0.00000000       0.33333334 </v>
   <v>       0.75000000       0.50000000       0.33333334 </v>
   <v>       0.00000000       0.25000000       0.33333334 </v>
   <v>       0.00000000       0.75000000       0.33333334 </v>
   <v>       0.50000000       0.25000000       0.33333334 </v>
   <v>       0.50000000       0.75000000       0.33333334 </v>
   <v>       0.16666667       0.33333334       0.44444445 </v>
   <v>       0.16666667       0.83333334       0.44444445 </v>
   <v>       0.66666667       0.33333334       0.44444445 </v>
   <v>       0.66666667       0.83333334       0.44444445 </v>
   <v>       0.41666666       0.08333334       0.44444445 </v>
   <v>       0.41666666       0.58333334       0.44444445 </v>
   <v>       0.91666666       0.08333334       0.44444445 </v>
   <v>       0.91666666       0.58333334       0.44444445 </v>
   <v>       0.41666666       0.33333334       0.44444445 </v>
   <v>       0.41666666       0.83333334       0.44444445 </v>
   <v>       0.91666666       0.33333334       0.44444445 </v>
   <v>       0.91666666       0.83333334       0.44444445 </v>
   <v>       0.16666667       0.08333334       0.44444445 </v>
   <v>       0.16666667       0.58333334       0.44444445 </v>
   <v>       0.66666667       0.08333334       0.44444445 </v>
   <v>       0.66666667       0.58333334       0.44444445 </v>
   <v>       0.00108337       0.00216674       0.07972288 </v>
   <v>       0.00060404       0.50120809       0.07927097 </v>
   <v>       0.50060404       0.00120809       0.07927097 </v>
   <v>       0.50060404       0.50120809       0.07927097 </v>
   <v>       0.00060404       0.24939596       0.07927100 </v>
   <v>       0.00060404       0.74939596       0.07927100 </v>
   <v>       0.50060404       0.24939596       0.07927100 </v>
   <v>       0.50060404       0.74939596       0.07927100 </v>
   <v>       0.25000000       0.00000000       0.08094485 </v>
   <v>       0.25000000       0.50000000       0.08094485 </v>
   <v>       0.75000000       0.00000000       0.08094485 </v>
   <v>       0.75000000       0.50000000       0.08094485 </v>
   <v>       0.24879191       0.24939596       0.07927100 </v>
   <v>       0.24879191       0.74939596       0.07927100 </v>
   <v>       0.74879191       0.24939596       0.07927100 </v>
   <v>       0.74879191       0.74939596       0.07927100 </v>
   <v>       0.16660331       0.33320661       0.19452973 </v>
   <v>       0.16660331       0.83320661       0.19452973 </v>
   <v>       0.66660331       0.33320661       0.19452973 </v>
   <v>       0.66660331       0.83320661       0.19452973 </v>
   <v>       0.16660331       0.08339670       0.19452973 </v>
   <v>       0.16660331       0.58339670       0.19452973 </v>
   <v>       0.66660331       0.08339670       0.19452973 </v>
   <v>       0.66660331       0.58339670       0.19452973 </v>
   <v>       0.41666666       0.33333334       0.19342860 </v>
   <v>       0.41666666       0.83333334       0.19342860 </v>
   <v>       0.91666666       0.33333334       0.19342860 </v>
   <v>       0.91666666       0.83333334       0.19342860 </v>
   <v>       0.41679339       0.08339670       0.19452973 </v>
   <v>       0.41679339       0.58339670       0.19452973 </v>
   <v>       0.91679339       0.08339670       0.19452973 </v>
   <v>       0.91679339       0.58339670       0.19452973 </v>
   <v>       0.33333334       0.16666667       0.30555555 </v>
   <v>       0.33333334       0.66666667       0.30555555 </v>
   <v>       0.83333334       0.16666667       0.30555555 </v>
   <v>       0.83333334       0.66666667       0.30555555 </v>
   <v>       0.33333334       0.41666666       0.30555555 </v>
   <v>       0.33333334       0.91666666       0.30555555 </v>
   <v>       0.83333334       0.41666666       0.30555555 </v>
   <v>       0.83333334       0.91666666       0.30555555 </v>
   <v>       0.08333331       0.16666669       0.30555555 </v>
   <v>       0.08333331       0.66666669       0.30555555 </v>
   <v>       0.58333331       0.16666669       0.30555555 </v>
   <v>       0.58333331       0.66666669       0.30555555 </v>
   <v>       0.08333331       0.41666666       0.30555555 </v>
   <v>       0.08333331       0.91666666       0.30555555 </v>
   <v>       0.58333331       0.41666666       0.30555555 </v>
   <v>       0.58333331       0.91666666       0.30555555 </v>
   <v>       0.00000000       0.00000000       0.41666666 </v>
   <v>       0.00000000       0.50000000       0.41666666 </v>
   <v>       0.50000000       0.00000000       0.41666666 </v>
   <v>       0.50000000       0.50000000       0.41666666 </v>
   <v>       0.00000000       0.25000000       0.41666666 </v>
   <v>       0.00000000       0.75000000       0.41666666 </v>
   <v>       0.50000000       0.25000000       0.41666666 </v>
   <v>       0.50000000       0.75000000       0.41666666 </v>
   <v>       0.25000000       0.00000000       0.41666666 </v>
   <v>       0.25000000       0.50000000       0.41666666 </v>
   <v>       0.75000000       0.00000000       0.41666666 </v>
   <v>       0.75000000       0.50000000       0.41666666 </v>
   <v>       0.25000000       0.25000000       0.41666666 </v>
   <v>       0.25000000       0.75000000       0.41666666 </v>
   <v>       0.75000000       0.25000000       0.41666666 </v>
   <v>       0.75000000       0.75000000       0.41666666 </v>
   <v>       0.16666667       0.33333334       0.50007080 </v>
   <v>       0.16666667       0.83333334       0.50007080 </v>
   <v>       0.66666667       0.33333334       0.50007080 </v>
   <v>       0.66666667       0.83333334       0.50007080 </v>
   <v>       0.16666667       0.08333334       0.50007080 </v>
   <v>       0.16666667       0.58333334       0.50007080 </v>
   <v>       0.66666667       0.08333334       0.50007080 </v>
   <v>       0.66666667       0.58333334       0.50007080 </v>
   <v>       0.41666666       0.33333334       0.50007080 </v>
   <v>       0.41666666       0.83333334       0.50007080 </v>
   <v>       0.91666666       0.33333334       0.50007080 </v>
   <v>       0.91666666       0.83333334       0.50007080 </v>
   <v>       0.41666666       0.08333334       0.50007080 </v>
   <v>       0.41666666       0.58333334       0.50007080 </v>
   <v>       0.91666666       0.08333334       0.50007080 </v>
   <v>       0.91666666       0.58333334       0.50007080 </v>
  </varray>
 </structure>
</modeling>
