<?xml version="1.0" encoding="ISO-8859-1"?>
<modeling>
 <generator>
  <i name="program" type="string">vasp </i>
  <i name="version" type="string">5.4.4.18Apr17-6-g9f103f2a35  </i>
  <i name="subversion" type="string">(build Feb 09 2021 16:27:36) complex            parallel </i>
  <i name="platform" type="string">IFC15_impi </i>
  <i name="date" type="string">2021 04 29 </i>
  <i name="time" type="string">03:21:05 </i>
 </generator>
 <incar>
  <i type="int" name="ISTART">     0</i>
  <i type="string" name="PREC">a</i>
  <i type="logical" name="ADDGRID"> T  </i>
  <i type="int" name="NELM">   300</i>
  <i type="int" name="NELMIN">     5</i>
  <i type="int" name="IBRION">    -1</i>
  <i name="EDIFF">      0.00000100</i>
  <i name="ENCUT">    500.00000000</i>
  <i type="logical" name="LREAL"> F  </i>
  <i type="int" name="ISMEAR">     0</i>
  <i name="SIGMA">      0.05000000</i>
  <i type="logical" name="LWAVE"> F  </i>
  <i type="logical" name="LCHARG"> F  </i>
  <v type="int" name="KPOINT_BSE">    -1     0     0     0</v>
  <i type="int" name="NELM">   300</i>
 </incar>
 <structure name="primitive_cell" >
  <crystal>
   <varray name="basis" >
    <v>      10.28518105       0.00000000       0.00000000 </v>
    <v>       5.14259052       8.90722807       0.00000000 </v>
    <v>       0.00000000       0.00000000      27.79016876 </v>
   </varray>
   <i name="volume">   2545.92553775 </i>
   <varray name="rec_basis" >
    <v>       0.09722726      -0.05613419       0.00000000 </v>
    <v>       0.00000000       0.11226837       0.00000000 </v>
    <v>       0.00000000       0.00000000       0.03598395 </v>
   </varray>
  </crystal>
  <varray name="positions" >
   <v>       0.00000000       0.00000000       0.22663990 </v>
   <v>       0.16666666      -0.08333334       0.30218653 </v>
   <v>      -0.08333334       0.16666666       0.30218653 </v>
   <v>       0.25000000       0.00000000       0.22663990 </v>
   <v>       0.00000000      -0.25000000       0.22663990 </v>
   <v>       0.25000000      -0.25000000       0.22663990 </v>
   <v>      -0.25000000       0.25000000       0.22663990 </v>
   <v>       0.00000000       0.25000000       0.22663990 </v>
   <v>      -0.25000000       0.00000000       0.22663990 </v>
   <v>      -0.08333334      -0.08333334       0.30218653 </v>
   <v>       0.16666666       0.16666666       0.30218653 </v>
   <v>       0.16666666      -0.33333334       0.30218653 </v>
   <v>      -0.33333334       0.16666666       0.30218653 </v>
   <v>       0.08333333       0.08333333       0.37716320 </v>
   <v>       0.08351614      -0.16675810       0.37729758 </v>
   <v>      -0.16675810       0.08351614       0.37729758 </v>
   <v>       0.41666666      -0.08333334       0.30218653 </v>
   <v>      -0.08333334       0.41666666       0.30218653 </v>
   <v>      -0.33333334       0.41666666       0.30218653 </v>
   <v>       0.41666666      -0.33333334       0.30218653 </v>
   <v>      -0.50000000       0.25000000       0.22663990 </v>
   <v>       0.25000000       0.25000000       0.22663990 </v>
   <v>       0.25000000      -0.50000000       0.22663990 </v>
   <v>      -0.25000000      -0.50000000       0.22663990 </v>
   <v>      -0.25000000      -0.25000000       0.22663990 </v>
   <v>      -0.50000000      -0.25000000       0.22663990 </v>
   <v>      -0.08333334      -0.33333334       0.30218653 </v>
   <v>      -0.33333334      -0.08333334       0.30218653 </v>
   <v>       0.33324190      -0.16675810       0.37729758 </v>
   <v>      -0.16675810       0.33324190       0.37729758 </v>
   <v>      -0.16675810      -0.16675810       0.37729758 </v>
   <v>       0.00000000      -0.50000000       0.22663990 </v>
   <v>      -0.50000000      -0.50000000       0.22663990 </v>
   <v>      -0.50000000       0.00000000       0.22663990 </v>
   <v>      -0.41666667       0.08333333       0.37716320 </v>
   <v>       0.08333333      -0.41666667       0.37716320 </v>
   <v>       0.33324190      -0.41648386       0.37729758 </v>
   <v>      -0.41648386       0.33324190       0.37729758 </v>
   <v>       0.33324190       0.08351614       0.37729758 </v>
   <v>       0.08351614       0.33324190       0.37729758 </v>
   <v>       0.16666666       0.41666666       0.30218653 </v>
   <v>       0.41666666       0.16666666       0.30218653 </v>
   <v>       0.41666666       0.41666666       0.30218653 </v>
   <v>       0.00012997       0.00012997       0.45242342 </v>
   <v>      -0.33333334      -0.33333334       0.30218653 </v>
   <v>       0.00012997       0.24974005       0.45242342 </v>
   <v>       0.24974005       0.00012997       0.45242342 </v>
   <v>      -0.25025995       0.00012997       0.45242342 </v>
   <v>       0.00012997      -0.25025995       0.45242342 </v>
   <v>       0.25000000      -0.25000000       0.45288750 </v>
   <v>      -0.25000000       0.25000000       0.45288750 </v>
   <v>      -0.41666667      -0.41666667       0.37716320 </v>
   <v>      -0.41648386      -0.16675810       0.37729758 </v>
   <v>      -0.16675810      -0.41648386       0.37729758 </v>
   <v>       0.33324190       0.33324190       0.37729758 </v>
   <v>       0.24974005      -0.49987003       0.45242342 </v>
   <v>      -0.49987003       0.24974005       0.45242342 </v>
   <v>      -0.49987003      -0.25025995       0.45242342 </v>
   <v>      -0.25025995      -0.49987003       0.45242342 </v>
   <v>       0.25000000       0.25000000       0.45288750 </v>
   <v>      -0.25000000      -0.25000000       0.45288750 </v>
   <v>       0.00012997      -0.49987003       0.45242342 </v>
   <v>      -0.49987003       0.00012997       0.45242342 </v>
   <v>      -0.49987003      -0.49987003       0.45242342 </v>
   <v>      -0.08333334      -0.08333334      -0.47258061 </v>
   <v>      -0.08321199       0.16660598      -0.47186093 </v>
   <v>       0.16660598      -0.08321199      -0.47186093 </v>
   <v>       0.16660598       0.16660598      -0.47186093 </v>
   <v>      -0.33339402       0.16660598      -0.47186093 </v>
   <v>       0.16660598      -0.33339402      -0.47186093 </v>
   <v>       0.41666666      -0.08333334      -0.47258061 </v>
   <v>      -0.08333334       0.41666666      -0.47258061 </v>
   <v>      -0.33339402      -0.08321199      -0.47186093 </v>
   <v>      -0.08321199      -0.33339402      -0.47186093 </v>
   <v>      -0.33339402       0.41678801      -0.47186093 </v>
   <v>       0.41678801      -0.33339402      -0.47186093 </v>
   <v>       0.41666666       0.41666666      -0.47258061 </v>
   <v>       0.16660598       0.41678801      -0.47186093 </v>
   <v>       0.41678801       0.16660598      -0.47186093 </v>
   <v>      -0.33339402      -0.33339402      -0.47186093 </v>
   <v>       0.08333333       0.08333333      -0.39746661 </v>
   <v>      -0.16565471       0.08130935      -0.39679536 </v>
   <v>       0.08130935      -0.16565471      -0.39679536 </v>
   <v>      -0.16565471      -0.16565471      -0.39679536 </v>
   <v>      -0.16565471       0.33434529      -0.39679536 </v>
   <v>       0.33434529      -0.16565471      -0.39679536 </v>
   <v>      -0.41666667       0.08333333      -0.39746661 </v>
   <v>       0.08333333      -0.41666667      -0.39746661 </v>
   <v>       0.33434529       0.08130935      -0.39679536 </v>
   <v>       0.33434529      -0.41869065      -0.39679536 </v>
   <v>      -0.41869065       0.33434529      -0.39679536 </v>
   <v>       0.08268435       0.33434529      -0.39628647 </v>
   <v>      -0.41666667      -0.41666667      -0.39746661 </v>
   <v>      -0.41869065      -0.16565471      -0.39679536 </v>
   <v>      -0.16565471      -0.41869065      -0.39679536 </v>
   <v>       0.33434529       0.33434529      -0.39679536 </v>
   <v>      -0.00285352      -0.00285352      -0.31942752 </v>
   <v>       0.25000000      -0.25000000      -0.32519129 </v>
   <v>      -0.25000000       0.25000000      -0.32519129 </v>
   <v>      -0.24429296      -0.00285352      -0.31942752 </v>
   <v>      -0.00285352      -0.24429296      -0.31942752 </v>
   <v>      -0.00285352       0.25570704      -0.31942752 </v>
   <v>       0.25570704      -0.00285352      -0.31942752 </v>
   <v>       0.25000000       0.25000000      -0.32519129 </v>
   <v>      -0.25000000      -0.25000000      -0.32519129 </v>
   <v>       0.49714648      -0.24429296      -0.31942752 </v>
   <v>      -0.24429296       0.49714648      -0.31942752 </v>
   <v>       0.25570704       0.49714648      -0.31942752 </v>
   <v>       0.49714648       0.25570704      -0.31942752 </v>
   <v>      -0.00285352       0.49714648      -0.31942752 </v>
   <v>       0.49714648      -0.00285352      -0.31942752 </v>
   <v>       0.49714648       0.49714648      -0.31942752 </v>
   <v>       0.08333333       0.08333333      -0.27956112 </v>
   <v>      -0.41666667       0.08333333      -0.27956112 </v>
   <v>       0.08333333      -0.41666667      -0.27956112 </v>
   <v>      -0.41666667      -0.41666667      -0.27956112 </v>
  </varray>
 </structure>
 <varray name="primitive_index" >
  <v type="int" >        1 </v>
  <v type="int" >       22 </v>
  <v type="int" >       27 </v>
  <v type="int" >        9 </v>
  <v type="int" >        6 </v>
  <v type="int" >       14 </v>
  <v type="int" >       15 </v>
  <v type="int" >        5 </v>
  <v type="int" >       11 </v>
  <v type="int" >       32 </v>
  <v type="int" >       17 </v>
  <v type="int" >       18 </v>
  <v type="int" >       19 </v>
  <v type="int" >       33 </v>
  <v type="int" >       38 </v>
  <v type="int" >       43 </v>
  <v type="int" >       30 </v>
  <v type="int" >       31 </v>
  <v type="int" >       23 </v>
  <v type="int" >       26 </v>
  <v type="int" >        7 </v>
  <v type="int" >       13 </v>
  <v type="int" >       10 </v>
  <v type="int" >       12 </v>
  <v type="int" >       16 </v>
  <v type="int" >        8 </v>
  <v type="int" >       28 </v>
  <v type="int" >       24 </v>
  <v type="int" >       46 </v>
  <v type="int" >       47 </v>
  <v type="int" >       48 </v>
  <v type="int" >        2 </v>
  <v type="int" >        4 </v>
  <v type="int" >        3 </v>
  <v type="int" >       35 </v>
  <v type="int" >       34 </v>
  <v type="int" >       42 </v>
  <v type="int" >       39 </v>
  <v type="int" >       41 </v>
  <v type="int" >       37 </v>
  <v type="int" >       21 </v>
  <v type="int" >       25 </v>
  <v type="int" >       29 </v>
  <v type="int" >       49 </v>
  <v type="int" >       20 </v>
  <v type="int" >       53 </v>
  <v type="int" >       57 </v>
  <v type="int" >       59 </v>
  <v type="int" >       54 </v>
  <v type="int" >       62 </v>
  <v type="int" >       63 </v>
  <v type="int" >       36 </v>
  <v type="int" >       40 </v>
  <v type="int" >       44 </v>
  <v type="int" >       45 </v>
  <v type="int" >       58 </v>
  <v type="int" >       55 </v>
  <v type="int" >       56 </v>
  <v type="int" >       60 </v>
  <v type="int" >       61 </v>
  <v type="int" >       64 </v>
  <v type="int" >       50 </v>
  <v type="int" >       51 </v>
  <v type="int" >       52 </v>
  <v type="int" >       80 </v>
  <v type="int" >       75 </v>
  <v type="int" >       70 </v>
  <v type="int" >       65 </v>
  <v type="int" >       67 </v>
  <v type="int" >       66 </v>
  <v type="int" >       78 </v>
  <v type="int" >       79 </v>
  <v type="int" >       72 </v>
  <v type="int" >       76 </v>
  <v type="int" >       71 </v>
  <v type="int" >       74 </v>
  <v type="int" >       77 </v>
  <v type="int" >       69 </v>
  <v type="int" >       73 </v>
  <v type="int" >       68 </v>
  <v type="int" >       81 </v>
  <v type="int" >       91 </v>
  <v type="int" >       86 </v>
  <v type="int" >       96 </v>
  <v type="int" >       95 </v>
  <v type="int" >       94 </v>
  <v type="int" >       83 </v>
  <v type="int" >       82 </v>
  <v type="int" >       89 </v>
  <v type="int" >       90 </v>
  <v type="int" >       87 </v>
  <v type="int" >       85 </v>
  <v type="int" >       84 </v>
  <v type="int" >       88 </v>
  <v type="int" >       92 </v>
  <v type="int" >       93 </v>
  <v type="int" >      100 </v>
  <v type="int" >      110 </v>
  <v type="int" >      111 </v>
  <v type="int" >      108 </v>
  <v type="int" >      104 </v>
  <v type="int" >      103 </v>
  <v type="int" >      106 </v>
  <v type="int" >      109 </v>
  <v type="int" >      112 </v>
  <v type="int" >      102 </v>
  <v type="int" >      107 </v>
  <v type="int" >      105 </v>
  <v type="int" >      101 </v>
  <v type="int" >       99 </v>
  <v type="int" >       98 </v>
  <v type="int" >       97 </v>
  <v type="int" >      113 </v>
  <v type="int" >      115 </v>
  <v type="int" >      114 </v>
  <v type="int" >      116 </v>
 </varray>
 <kpoints>
  <generation param="Gamma">
   <v type="int" name="divisions">       4        4        1 </v>
   <v name="usershift">      0.00000000       0.00000000       0.00000000 </v>
   <v name="genvec1">      0.25000000      -0.00000000       0.00000000 </v>
   <v name="genvec2">      0.00000000       0.25000000       0.00000000 </v>
   <v name="genvec3">      0.00000000       0.00000000       1.00000000 </v>
   <v name="shift">      0.00000000       0.00000000       0.00000000 </v>
  </generation>
  <varray name="kpointlist" >
   <v>       0.00000000       0.00000000       0.00000000 </v>
   <v>       0.25000000      -0.00000000       0.00000000 </v>
   <v>       0.50000000      -0.00000000       0.00000000 </v>
   <v>       0.00000000       0.25000000       0.00000000 </v>
   <v>       0.25000000       0.25000000       0.00000000 </v>
   <v>       0.50000000       0.25000000       0.00000000 </v>
   <v>      -0.25000000       0.25000000       0.00000000 </v>
   <v>       0.00000000       0.50000000       0.00000000 </v>
   <v>       0.25000000       0.50000000       0.00000000 </v>
   <v>       0.50000000       0.50000000       0.00000000 </v>
  </varray>
  <varray name="weights" >
   <v>       0.06250000 </v>
   <v>       0.12500000 </v>
   <v>       0.06250000 </v>
   <v>       0.12500000 </v>
   <v>       0.12500000 </v>
   <v>       0.12500000 </v>
   <v>       0.12500000 </v>
   <v>       0.06250000 </v>
   <v>       0.12500000 </v>
   <v>       0.06250000 </v>
  </varray>
 </kpoints>
 <parameters>
  <separator name="general" >
   <i type="string" name="SYSTEM">unknown system</i>
   <i type="logical" name="LCOMPAT"> F  </i>
  </separator>
  <separator name="electronic" >
   <i type="string" name="PREC">a</i>
   <i name="ENMAX">    500.00000000</i>
   <i name="ENAUG">    605.39200000</i>
   <i name="EDIFF">      0.00000100</i>
   <i type="int" name="IALGO">    38</i>
   <i type="int" name="IWAVPR">    10</i>
   <i type="int" name="NBANDS">   756</i>
   <i name="NELECT">   1256.00000000</i>
   <i type="int" name="TURBO">     0</i>
   <i type="int" name="IRESTART">     0</i>
   <i type="int" name="NREBOOT">     0</i>
   <i type="int" name="NMIN">     0</i>
   <i name="EREF">      0.00000000</i>
   <separator name="electronic smearing" >
    <i type="int" name="ISMEAR">     0</i>
    <i name="SIGMA">      0.05000000</i>
    <i name="KSPACING">      0.50000000</i>
    <i type="logical" name="KGAMMA"> T  </i>
   </separator>
   <separator name="electronic projectors" >
    <i type="logical" name="LREAL"> F  </i>
    <v name="ROPT">      0.00000000      0.00000000</v>
    <i type="int" name="LMAXPAW">  -100</i>
    <i type="int" name="LMAXMIX">     2</i>
    <i type="logical" name="NLSPLINE"> F  </i>
   </separator>
   <separator name="electronic startup" >
    <i type="int" name="ISTART">     0</i>
    <i type="int" name="ICHARG">     2</i>
    <i type="int" name="INIWAV">     1</i>
   </separator>
   <separator name="electronic spin" >
    <i type="int" name="ISPIN">     1</i>
    <i type="logical" name="LNONCOLLINEAR"> F  </i>
    <v name="MAGMOM">      1.00000000      1.00000000      1.00000000      1.00000000      1.00000000      1.00000000      1.00000000      1.00000000      1.00000000      1.00000000      1.00000000      1.00000000      1.00000000      1.00000000      1.00000000      1.00000000      1.00000000      1.00000000      1.00000000      1.00000000
      1.00000000      1.00000000      1.00000000      1.00000000      1.00000000      1.00000000      1.00000000      1.00000000      1.00000000      1.00000000      1.00000000      1.00000000      1.00000000      1.00000000      1.00000000      1.00000000      1.00000000      1.00000000      1.00000000      1.00000000
      1.00000000      1.00000000      1.00000000      1.00000000      1.00000000      1.00000000      1.00000000      1.00000000      1.00000000      1.00000000      1.00000000      1.00000000      1.00000000      1.00000000      1.00000000      1.00000000      1.00000000      1.00000000      1.00000000      1.00000000
      1.00000000      1.00000000      1.00000000      1.00000000      1.00000000      1.00000000      1.00000000      1.00000000      1.00000000      1.00000000      1.00000000      1.00000000      1.00000000      1.00000000      1.00000000      1.00000000      1.00000000      1.00000000      1.00000000      1.00000000
      1.00000000      1.00000000      1.00000000      1.00000000      1.00000000      1.00000000      1.00000000      1.00000000      1.00000000      1.00000000      1.00000000      1.00000000      1.00000000      1.00000000      1.00000000      1.00000000      1.00000000      1.00000000      1.00000000      1.00000000
      1.00000000      1.00000000      1.00000000      1.00000000      1.00000000      1.00000000      1.00000000      1.00000000      1.00000000      1.00000000      1.00000000      1.00000000      1.00000000      1.00000000      1.00000000      1.00000000</v>
    <i name="NUPDOWN">     -1.00000000</i>
    <i type="logical" name="LSORBIT"> F  </i>
    <v name="SAXIS">      0.00000000      0.00000000      1.00000000</v>
    <i type="logical" name="LSPIRAL"> F  </i>
    <v name="QSPIRAL">      0.00000000      0.00000000      0.00000000</v>
    <i type="logical" name="LZEROZ"> F  </i>
   </separator>
   <separator name="electronic exchange-correlation" >
    <i type="logical" name="LASPH"> F  </i>
    <i type="logical" name="LMETAGGA"> F  </i>
   </separator>
   <separator name="electronic convergence" >
    <i type="int" name="NELM">   300</i>
    <i type="int" name="NELMDL">    -5</i>
    <i type="int" name="NELMIN">     5</i>
    <i name="ENINI">    500.00000000</i>
    <separator name="electronic convergence detail" >
     <i type="logical" name="LDIAG"> T  </i>
     <i type="logical" name="LSUBROT"> F  </i>
     <i name="WEIMIN">      0.00000000</i>
     <i name="EBREAK">      0.00000000</i>
     <i name="DEPER">      0.30000000</i>
     <i type="int" name="NRMM">     4</i>
     <i name="TIME">      0.40000000</i>
    </separator>
   </separator>
   <separator name="electronic mixer" >
    <i name="AMIX">      0.40000000</i>
    <i name="BMIX">      1.00000000</i>
    <i name="AMIN">      0.10000000</i>
    <i name="AMIX_MAG">      1.60000000</i>
    <i name="BMIX_MAG">      1.00000000</i>
    <separator name="electronic mixer details" >
     <i type="int" name="IMIX">     4</i>
     <i type="logical" name="MIXFIRST"> F  </i>
     <i type="int" name="MAXMIX">   -45</i>
     <i name="WC">    100.00000000</i>
     <i type="int" name="INIMIX">     1</i>
     <i type="int" name="MIXPRE">     1</i>
     <i type="int" name="MREMOVE">     5</i>
    </separator>
   </separator>
   <separator name="electronic dipolcorrection" >
    <i type="logical" name="LDIPOL"> F  </i>
    <i type="logical" name="LMONO"> F  </i>
    <i type="int" name="IDIPOL">     0</i>
    <i name="EPSILON">      1.00000000</i>
    <v name="DIPOL">   -100.00000000   -100.00000000   -100.00000000</v>
    <i name="EFIELD">      0.00000000</i>
   </separator>
  </separator>
  <separator name="grids" >
   <i type="int" name="NGX">    80</i>
   <i type="int" name="NGY">    80</i>
   <i type="int" name="NGZ">   210</i>
   <i type="int" name="NGXF">   160</i>
   <i type="int" name="NGYF">   160</i>
   <i type="int" name="NGZF">   420</i>
   <i type="logical" name="ADDGRID"> T  </i>
  </separator>
  <separator name="ionic" >
   <i type="int" name="NSW">     0</i>
   <i type="int" name="IBRION">    -1</i>
   <i type="int" name="MDALGO">     0</i>
   <i type="int" name="ISIF">     2</i>
   <i name="PSTRESS">      0.00000000</i>
   <i name="EDIFFG">      0.00001000</i>
   <i type="int" name="NFREE">     0</i>
   <i name="POTIM">      0.50000000</i>
   <i name="SMASS">     -3.00000000</i>
   <i name="SCALEE">      1.00000000</i>
  </separator>
  <separator name="ionic md" >
   <i name="TEBEG">      0.00010000</i>
   <i name="TEEND">      0.00010000</i>
   <i type="int" name="NBLOCK">     1</i>
   <i type="int" name="KBLOCK">     1</i>
   <i type="int" name="NPACO">   256</i>
   <i name="APACO">     16.00000000</i>
  </separator>
  <separator name="symmetry" >
   <i type="int" name="ISYM">     2</i>
   <i name="SYMPREC">      0.00001000</i>
  </separator>
  <separator name="dos" >
   <i type="int" name="LORBIT">     0</i>
   <v name="RWIGS">     -1.00000000     -1.00000000</v>
   <i type="int" name="NEDOS">   301</i>
   <i name="EMIN">     10.00000000</i>
   <i name="EMAX">    -10.00000000</i>
   <i name="EFERMI">      0.00000000</i>
  </separator>
  <separator name="writing" >
   <i type="int" name="NWRITE">     2</i>
   <i type="logical" name="LWAVE"> F  </i>
   <i type="logical" name="LDOWNSAMPLE"> F  </i>
   <i type="logical" name="LCHARG"> F  </i>
   <i type="logical" name="LPARD"> F  </i>
   <i type="logical" name="LVTOT"> F  </i>
   <i type="logical" name="LVHAR"> F  </i>
   <i type="logical" name="LELF"> F  </i>
   <i type="logical" name="LOPTICS"> F  </i>
   <v name="STM">      0.00000000      0.00000000      0.00000000      0.00000000      0.00000000      0.00000000      0.00000000</v>
  </separator>
  <separator name="performance" >
   <i type="int" name="NPAR">     4</i>
   <i type="int" name="NSIM">     4</i>
   <i type="int" name="NBLK">    -1</i>
   <i type="logical" name="LPLANE"> T  </i>
   <i type="logical" name="LSCALAPACK"> F  </i>
   <i type="logical" name="LSCAAWARE"> F  </i>
   <i type="logical" name="LSCALU"> F  </i>
   <i type="logical" name="LASYNC"> F  </i>
   <i type="logical" name="LORBITALREAL"> F  </i>
  </separator>
  <separator name="miscellaneous" >
   <i type="int" name="IDIOT">     3</i>
   <i type="int" name="ISPECIAL">     0</i>
   <i type="logical" name="LMUSIC"> F  </i>
   <v name="POMASS">     63.54600000     16.00000000</v>
   <v name="DARWINR">      0.00000000      0.00000000</v>
   <v name="DARWINV">      1.00000000      1.00000000</v>
   <i type="logical" name="LCORR"> T  </i>
  </separator>
  <i type="logical" name="GGA_COMPAT"> T  </i>
  <i type="logical" name="LBERRY"> F  </i>
  <i type="int" name="ICORELEVEL">     0</i>
  <i type="logical" name="LDAU"> F  </i>
  <i type="int" name="I_CONSTRAINED_M">     0</i>
  <separator name="electronic exchange-correlation" >
   <i type="string" name="GGA">--</i>
   <i type="int" name="VOSKOWN">     0</i>
   <i type="logical" name="LHFCALC"> F  </i>
   <i type="string" name="PRECFOCK"></i>
   <i type="logical" name="LSYMGRAD"> F  </i>
   <i type="logical" name="LHFONE"> F  </i>
   <i type="logical" name="LRHFCALC"> F  </i>
   <i type="logical" name="LTHOMAS"> F  </i>
   <i type="logical" name="LMODELHF"> F  </i>
   <i name="ENCUT4O">     -1.00000000</i>
   <i type="int" name="EXXOEP">     0</i>
   <i type="int" name="FOURORBIT">     0</i>
   <i name="AEXX">      0.00000000</i>
   <i name="HFALPHA">      0.00000000</i>
   <i name="MCALPHA">      0.00000000</i>
   <i name="ALDAX">      1.00000000</i>
   <i name="AGGAX">      1.00000000</i>
   <i name="ALDAC">      1.00000000</i>
   <i name="AGGAC">      1.00000000</i>
   <i type="int" name="NKREDX">     1</i>
   <i type="int" name="NKREDY">     1</i>
   <i type="int" name="NKREDZ">     1</i>
   <i type="logical" name="SHIFTRED"> F  </i>
   <i type="logical" name="ODDONLY"> F  </i>
   <i type="logical" name="EVENONLY"> F  </i>
   <i type="int" name="LMAXFOCK">     0</i>
   <i type="int" name="NMAXFOCKAE">     0</i>
   <i type="logical" name="LFOCKAEDFT"> F  </i>
   <i name="HFSCREEN">      0.00000000</i>
   <i name="HFSCREENC">      0.00000000</i>
   <i type="int" name="NBANDSGWLOW">     0</i>
  </separator>
  <separator name="vdW DFT" >
   <i type="logical" name="LUSE_VDW"> F  </i>
   <i name="Zab_VDW">     -0.84910000</i>
   <i name="PARAM1">      0.12340000</i>
   <i name="PARAM2">      1.00000000</i>
   <i name="PARAM3">      0.00000000</i>
  </separator>
  <separator name="model GW" >
   <i type="int" name="MODEL_GW">     0</i>
   <i name="MODEL_EPS0">     13.16858037</i>
   <i name="MODEL_ALPHA">      1.00000000</i>
  </separator>
  <separator name="linear response parameters" >
   <i type="logical" name="LEPSILON"> F  </i>
   <i type="logical" name="LRPA"> F  </i>
   <i type="logical" name="LNABLA"> F  </i>
   <i type="logical" name="LVEL"> F  </i>
   <i type="int" name="KINTER">     0</i>
   <i name="CSHIFT">      0.10000000</i>
   <i name="OMEGAMAX">     -1.00000000</i>
   <i name="DEG_THRESHOLD">      0.00200000</i>
   <i name="RTIME">     -0.10000000</i>
   <i name="WPLASMAI">      0.00000000</i>
   <v name="DFIELD">      0.00000000      0.00000000      0.00000000</v>
   <v name="WPLASMA">      0.00000000      0.00000000      0.00000000      0.00000000      0.00000000      0.00000000      0.00000000      0.00000000      0.00000000</v>
  </separator>
  <separator name="orbital magnetization" >
   <i type="logical" name="NUCIND"> F  </i>
   <v name="MAGPOS">      0.00000000      0.00000000      0.00000000</v>
   <i type="logical" name="LNICSALL"> T  </i>
   <i type="logical" name="ORBITALMAG"> F  </i>
   <i type="logical" name="LMAGBLOCH"> F  </i>
   <i type="logical" name="LCHIMAG"> F  </i>
   <i type="logical" name="LGAUGE"> T  </i>
   <i type="int" name="MAGATOM">     0</i>
   <v name="MAGDIPOL">      0.00000000      0.00000000      0.00000000</v>
   <v name="AVECCONST">      0.00000000      0.00000000      0.00000000</v>
  </separator>
  <separator name="response functions" >
   <i type="logical" name="LADDER"> F  </i>
   <i type="logical" name="LRPAFORCE"> F  </i>
   <i type="logical" name="LFXC"> F  </i>
   <i type="logical" name="LHARTREE"> T  </i>
   <i type="int" name="IBSE">     0</i>
   <v type="int" name="KPOINT">    -1     0     0     0</v>
   <i type="logical" name="LTCTE"> F  </i>
   <i type="logical" name="LTETE"> F  </i>
   <i type="logical" name="LTRIPLET"> F  </i>
   <i type="logical" name="LFXCEPS"> F  </i>
   <i type="logical" name="LFXHEG"> F  </i>
   <i type="int" name="NATURALO">     2</i>
   <i type="logical" name="L2ORDER"> F  </i>
   <i type="logical" name="LMP2LT"> F  </i>
   <i type="logical" name="LUSEW"> F  </i>
   <i name="ENCUTGW">     -2.00000000</i>
   <i name="ENCUTGWSOFT">     -2.00000000</i>
   <i name="ENCUTLF">     -1.00000000</i>
   <i type="int" name="LMAXMP2">    -1</i>
   <i name="SCISSOR">      0.00000000</i>
   <i type="int" name="NOMEGA">     0</i>
   <i type="int" name="NOMEGAR">     0</i>
   <i type="int" name="NBANDSGW">    -1</i>
   <i type="int" name="NBANDSO">    -1</i>
   <i type="int" name="NBANDSV">    -1</i>
   <i type="int" name="NELM">   300</i>
   <i type="int" name="NELMHF">     1</i>
   <i type="int" name="DIM">     3</i>
   <i type="int" name="ANTIRES">     0</i>
   <i name="OMEGAMAX">    -30.00000000</i>
   <i name="OMEGAMIN">    -30.00000000</i>
   <i name="OMEGATL">   -200.00000000</i>
   <i type="int" name="OMEGAGRID">   140</i>
   <i name="CSHIFT">     -0.10000000</i>
   <i type="logical" name="SELFENERGY"> F  </i>
   <i type="logical" name="LSPECTRAL"> F  </i>
   <i type="logical" name="LSPECTRALGW"> F  </i>
   <i type="logical" name="LSINGLES"> F  </i>
   <i type="logical" name="LFERMIGW"> F  </i>
   <i type="logical" name="ODDONLYGW"> F  </i>
   <i type="logical" name="EVENONLYGW"> F  </i>
   <i type="int" name="NKREDLFX">     1</i>
   <i type="int" name="NKREDLFY">     1</i>
   <i type="int" name="NKREDLFZ">     1</i>
   <i type="int" name="MAXMEM">  2800</i>
   <i type="int" name="TELESCOPE">     0</i>
   <i type="int" name="TAUPAR">     1</i>
   <i type="int" name="OMEGAPAR">    -1</i>
   <i name="LAMBDA">      1.00000000</i>
  </separator>
  <separator name="External order field" >
   <i name="OFIELD_KAPPA">      0.00000000</i>
   <v name="OFIELD_K">      0.00000000      0.00000000      0.00000000</v>
   <i name="OFIELD_Q6_NEAR">      0.00000000</i>
   <i name="OFIELD_Q6_FAR">      0.00000000</i>
   <i name="OFIELD_A">      0.00000000</i>
  </separator>
 </parameters>
 <atominfo>
  <atoms>     116 </atoms>
  <types>       2 </types>
  <array name="atoms" >
   <dimension dim="1">ion</dimension>
   <field type="string">element</field>
   <field type="int">atomtype</field>
   <set>
    <rc><c>Cu</c><c>   1</c></rc>
    <rc><c>Cu</c><c>   1</c></rc>
    <rc><c>Cu</c><c>   1</c></rc>
    <rc><c>Cu</c><c>   1</c></rc>
    <rc><c>Cu</c><c>   1</c></rc>
    <rc><c>Cu</c><c>   1</c></rc>
    <rc><c>Cu</c><c>   1</c></rc>
    <rc><c>Cu</c><c>   1</c></rc>
    <rc><c>Cu</c><c>   1</c></rc>
    <rc><c>Cu</c><c>   1</c></rc>
    <rc><c>Cu</c><c>   1</c></rc>
    <rc><c>Cu</c><c>   1</c></rc>
    <rc><c>Cu</c><c>   1</c></rc>
    <rc><c>Cu</c><c>   1</c></rc>
    <rc><c>Cu</c><c>   1</c></rc>
    <rc><c>Cu</c><c>   1</c></rc>
    <rc><c>Cu</c><c>   1</c></rc>
    <rc><c>Cu</c><c>   1</c></rc>
    <rc><c>Cu</c><c>   1</c></rc>
    <rc><c>Cu</c><c>   1</c></rc>
    <rc><c>Cu</c><c>   1</c></rc>
    <rc><c>Cu</c><c>   1</c></rc>
    <rc><c>Cu</c><c>   1</c></rc>
    <rc><c>Cu</c><c>   1</c></rc>
    <rc><c>Cu</c><c>   1</c></rc>
    <rc><c>Cu</c><c>   1</c></rc>
    <rc><c>Cu</c><c>   1</c></rc>
    <rc><c>Cu</c><c>   1</c></rc>
    <rc><c>Cu</c><c>   1</c></rc>
    <rc><c>Cu</c><c>   1</c></rc>
    <rc><c>Cu</c><c>   1</c></rc>
    <rc><c>Cu</c><c>   1</c></rc>
    <rc><c>Cu</c><c>   1</c></rc>
    <rc><c>Cu</c><c>   1</c></rc>
    <rc><c>Cu</c><c>   1</c></rc>
    <rc><c>Cu</c><c>   1</c></rc>
    <rc><c>Cu</c><c>   1</c></rc>
    <rc><c>Cu</c><c>   1</c></rc>
    <rc><c>Cu</c><c>   1</c></rc>
    <rc><c>Cu</c><c>   1</c></rc>
    <rc><c>Cu</c><c>   1</c></rc>
    <rc><c>Cu</c><c>   1</c></rc>
    <rc><c>Cu</c><c>   1</c></rc>
    <rc><c>Cu</c><c>   1</c></rc>
    <rc><c>Cu</c><c>   1</c></rc>
    <rc><c>Cu</c><c>   1</c></rc>
    <rc><c>Cu</c><c>   1</c></rc>
    <rc><c>Cu</c><c>   1</c></rc>
    <rc><c>Cu</c><c>   1</c></rc>
    <rc><c>Cu</c><c>   1</c></rc>
    <rc><c>Cu</c><c>   1</c></rc>
    <rc><c>Cu</c><c>   1</c></rc>
    <rc><c>Cu</c><c>   1</c></rc>
    <rc><c>Cu</c><c>   1</c></rc>
    <rc><c>Cu</c><c>   1</c></rc>
    <rc><c>Cu</c><c>   1</c></rc>
    <rc><c>Cu</c><c>   1</c></rc>
    <rc><c>Cu</c><c>   1</c></rc>
    <rc><c>Cu</c><c>   1</c></rc>
    <rc><c>Cu</c><c>   1</c></rc>
    <rc><c>Cu</c><c>   1</c></rc>
    <rc><c>Cu</c><c>   1</c></rc>
    <rc><c>Cu</c><c>   1</c></rc>
    <rc><c>Cu</c><c>   1</c></rc>
    <rc><c>Cu</c><c>   1</c></rc>
    <rc><c>Cu</c><c>   1</c></rc>
    <rc><c>Cu</c><c>   1</c></rc>
    <rc><c>Cu</c><c>   1</c></rc>
    <rc><c>Cu</c><c>   1</c></rc>
    <rc><c>Cu</c><c>   1</c></rc>
    <rc><c>Cu</c><c>   1</c></rc>
    <rc><c>Cu</c><c>   1</c></rc>
    <rc><c>Cu</c><c>   1</c></rc>
    <rc><c>Cu</c><c>   1</c></rc>
    <rc><c>Cu</c><c>   1</c></rc>
    <rc><c>Cu</c><c>   1</c></rc>
    <rc><c>Cu</c><c>   1</c></rc>
    <rc><c>Cu</c><c>   1</c></rc>
    <rc><c>Cu</c><c>   1</c></rc>
    <rc><c>Cu</c><c>   1</c></rc>
    <rc><c>Cu</c><c>   1</c></rc>
    <rc><c>Cu</c><c>   1</c></rc>
    <rc><c>Cu</c><c>   1</c></rc>
    <rc><c>Cu</c><c>   1</c></rc>
    <rc><c>Cu</c><c>   1</c></rc>
    <rc><c>Cu</c><c>   1</c></rc>
    <rc><c>Cu</c><c>   1</c></rc>
    <rc><c>Cu</c><c>   1</c></rc>
    <rc><c>Cu</c><c>   1</c></rc>
    <rc><c>Cu</c><c>   1</c></rc>
    <rc><c>Cu</c><c>   1</c></rc>
    <rc><c>Cu</c><c>   1</c></rc>
    <rc><c>Cu</c><c>   1</c></rc>
    <rc><c>Cu</c><c>   1</c></rc>
    <rc><c>Cu</c><c>   1</c></rc>
    <rc><c>Cu</c><c>   1</c></rc>
    <rc><c>Cu</c><c>   1</c></rc>
    <rc><c>Cu</c><c>   1</c></rc>
    <rc><c>Cu</c><c>   1</c></rc>
    <rc><c>Cu</c><c>   1</c></rc>
    <rc><c>Cu</c><c>   1</c></rc>
    <rc><c>Cu</c><c>   1</c></rc>
    <rc><c>Cu</c><c>   1</c></rc>
    <rc><c>Cu</c><c>   1</c></rc>
    <rc><c>Cu</c><c>   1</c></rc>
    <rc><c>Cu</c><c>   1</c></rc>
    <rc><c>Cu</c><c>   1</c></rc>
    <rc><c>Cu</c><c>   1</c></rc>
    <rc><c>Cu</c><c>   1</c></rc>
    <rc><c>Cu</c><c>   1</c></rc>
    <rc><c>Cu</c><c>   1</c></rc>
    <rc><c>Cu</c><c>   1</c></rc>
    <rc><c>O </c><c>   2</c></rc>
    <rc><c>O </c><c>   2</c></rc>
    <rc><c>O </c><c>   2</c></rc>
    <rc><c>O </c><c>   2</c></rc>
   </set>
  </array>
  <array name="atomtypes" >
   <dimension dim="1">type</dimension>
   <field type="int">atomspertype</field>
   <field type="string">element</field>
   <field>mass</field>
   <field>valence</field>
   <field type="string">pseudopotential</field>
   <set>
    <rc><c> 112</c><c>Cu</c><c>     63.54600000</c><c>     11.00000000</c><c> PAW_PBE Cu 05Jan2001                   </c></rc>
    <rc><c>   4</c><c>O </c><c>     16.00000000</c><c>      6.00000000</c><c> PAW_PBE O 08Apr2002                    </c></rc>
   </set>
  </array>
 </atominfo>
 <structure name="initialpos" >
  <crystal>
   <varray name="basis" >
    <v>      10.28518105       0.00000000       0.00000000 </v>
    <v>       5.14259052       8.90722807       0.00000000 </v>
    <v>       0.00000000       0.00000000      27.79016876 </v>
   </varray>
   <i name="volume">   2545.92553775 </i>
   <varray name="rec_basis" >
    <v>       0.09722726      -0.05613419       0.00000000 </v>
    <v>       0.00000000       0.11226837       0.00000000 </v>
    <v>       0.00000000       0.00000000       0.03598395 </v>
   </varray>
  </crystal>
  <varray name="positions" >
   <v>       0.00000000       0.00000000       0.22663990 </v>
   <v>       0.00000000       0.50000000       0.22663990 </v>
   <v>       0.50000000       0.00000000       0.22663990 </v>
   <v>       0.50000000       0.50000000       0.22663990 </v>
   <v>       0.00000000       0.25000000       0.22663990 </v>
   <v>       0.00000000       0.75000000       0.22663990 </v>
   <v>       0.50000000       0.25000000       0.22663990 </v>
   <v>       0.50000000       0.75000000       0.22663990 </v>
   <v>       0.25000000       0.00000000       0.22663990 </v>
   <v>       0.25000000       0.50000000       0.22663990 </v>
   <v>       0.75000000       0.00000000       0.22663990 </v>
   <v>       0.75000000       0.50000000       0.22663990 </v>
   <v>       0.25000000       0.25000000       0.22663990 </v>
   <v>       0.25000000       0.75000000       0.22663990 </v>
   <v>       0.75000000       0.25000000       0.22663990 </v>
   <v>       0.75000000       0.75000000       0.22663990 </v>
   <v>       0.16666666       0.16666666       0.30218653 </v>
   <v>       0.16666666       0.66666666       0.30218653 </v>
   <v>       0.66666666       0.16666666       0.30218653 </v>
   <v>       0.66666666       0.66666666       0.30218653 </v>
   <v>       0.16666666       0.41666666       0.30218653 </v>
   <v>       0.16666666       0.91666666       0.30218653 </v>
   <v>       0.66666666       0.41666666       0.30218653 </v>
   <v>       0.66666666       0.91666666       0.30218653 </v>
   <v>       0.41666666       0.16666666       0.30218653 </v>
   <v>       0.41666666       0.66666666       0.30218653 </v>
   <v>       0.91666666       0.16666666       0.30218653 </v>
   <v>       0.91666666       0.66666666       0.30218653 </v>
   <v>       0.41666666       0.41666666       0.30218653 </v>
   <v>       0.41666666       0.91666666       0.30218653 </v>
   <v>       0.91666666       0.41666666       0.30218653 </v>
   <v>       0.91666666       0.91666666       0.30218653 </v>
   <v>       0.08333333       0.08333333       0.37716320 </v>
   <v>       0.08333333       0.58333333       0.37716320 </v>
   <v>       0.58333333       0.08333333       0.37716320 </v>
   <v>       0.58333333       0.58333333       0.37716320 </v>
   <v>       0.08351614       0.33324190       0.37729758 </v>
   <v>       0.08351614       0.83324190       0.37729758 </v>
   <v>       0.58351614       0.33324190       0.37729758 </v>
   <v>       0.58351614       0.83324190       0.37729758 </v>
   <v>       0.33324190       0.08351614       0.37729758 </v>
   <v>       0.33324190       0.58351614       0.37729758 </v>
   <v>       0.83324190       0.08351614       0.37729758 </v>
   <v>       0.83324190       0.58351614       0.37729758 </v>
   <v>       0.33324190       0.33324190       0.37729758 </v>
   <v>       0.33324190       0.83324190       0.37729758 </v>
   <v>       0.83324190       0.33324190       0.37729758 </v>
   <v>       0.83324190       0.83324190       0.37729758 </v>
   <v>       0.00012997       0.00012997       0.45242342 </v>
   <v>       0.00012997       0.50012997       0.45242342 </v>
   <v>       0.50012997       0.00012997       0.45242342 </v>
   <v>       0.50012997       0.50012997       0.45242342 </v>
   <v>       0.00012997       0.24974005       0.45242342 </v>
   <v>       0.00012997       0.74974005       0.45242342 </v>
   <v>       0.50012997       0.24974005       0.45242342 </v>
   <v>       0.50012997       0.74974005       0.45242342 </v>
   <v>       0.24974005       0.00012997       0.45242342 </v>
   <v>       0.24974005       0.50012997       0.45242342 </v>
   <v>       0.74974005       0.00012997       0.45242342 </v>
   <v>       0.74974005       0.50012997       0.45242342 </v>
   <v>       0.25000000       0.25000000       0.45288750 </v>
   <v>       0.25000000       0.75000000       0.45288750 </v>
   <v>       0.75000000       0.25000000       0.45288750 </v>
   <v>       0.75000000       0.75000000       0.45288750 </v>
   <v>       0.16660598       0.16660598       0.52813907 </v>
   <v>       0.16660598       0.66660598       0.52813907 </v>
   <v>       0.66660598       0.16660598       0.52813907 </v>
   <v>       0.66660598       0.66660598       0.52813907 </v>
   <v>       0.16660598       0.41678801       0.52813907 </v>
   <v>       0.16660598       0.91678801       0.52813907 </v>
   <v>       0.66660598       0.41678801       0.52813907 </v>
   <v>       0.66660598       0.91678801       0.52813907 </v>
   <v>       0.41678801       0.16660598       0.52813907 </v>
   <v>       0.41678801       0.66660598       0.52813907 </v>
   <v>       0.91678801       0.16660598       0.52813907 </v>
   <v>       0.91678801       0.66660598       0.52813907 </v>
   <v>       0.41666666       0.41666666       0.52741939 </v>
   <v>       0.41666666       0.91666666       0.52741939 </v>
   <v>       0.91666666       0.41666666       0.52741939 </v>
   <v>       0.91666666       0.91666666       0.52741939 </v>
   <v>       0.08333333       0.08333333       0.60253339 </v>
   <v>       0.08333333       0.58333333       0.60253339 </v>
   <v>       0.58333333       0.08333333       0.60253339 </v>
   <v>       0.58333333       0.58333333       0.60253339 </v>
   <v>       0.08268435       0.33434529       0.60371353 </v>
   <v>       0.08130935       0.83434529       0.60320464 </v>
   <v>       0.58130935       0.33434529       0.60320464 </v>
   <v>       0.58130935       0.83434529       0.60320464 </v>
   <v>       0.33434529       0.08130935       0.60320464 </v>
   <v>       0.33434529       0.58130935       0.60320464 </v>
   <v>       0.83434529       0.08130935       0.60320464 </v>
   <v>       0.83434529       0.58130935       0.60320464 </v>
   <v>       0.33434529       0.33434529       0.60320464 </v>
   <v>       0.33434529       0.83434529       0.60320464 </v>
   <v>       0.83434529       0.33434529       0.60320464 </v>
   <v>       0.83434529       0.83434529       0.60320464 </v>
   <v>       0.49714648       0.49714648       0.68057248 </v>
   <v>       0.49714648       0.99714648       0.68057248 </v>
   <v>       0.99714648       0.49714648       0.68057248 </v>
   <v>       0.99714648       0.99714648       0.68057248 </v>
   <v>       0.49714648       0.25570704       0.68057248 </v>
   <v>       0.49714648       0.75570704       0.68057248 </v>
   <v>       0.99714648       0.25570704       0.68057248 </v>
   <v>       0.99714648       0.75570704       0.68057248 </v>
   <v>       0.25570704       0.49714648       0.68057248 </v>
   <v>       0.25570704       0.99714648       0.68057248 </v>
   <v>       0.75570704       0.49714648       0.68057248 </v>
   <v>       0.75570704       0.99714648       0.68057248 </v>
   <v>       0.25000000       0.25000000       0.67480871 </v>
   <v>       0.25000000       0.75000000       0.67480871 </v>
   <v>       0.75000000       0.25000000       0.67480871 </v>
   <v>       0.75000000       0.75000000       0.67480871 </v>
   <v>       0.08333333       0.08333333       0.72043888 </v>
   <v>       0.08333333       0.58333333       0.72043888 </v>
   <v>       0.58333333       0.08333333       0.72043888 </v>
   <v>       0.58333333       0.58333333       0.72043888 </v>
  </varray>
 </structure>
 <calculation>
  <scstep>
   <time name="dav">  160.96  161.27</time>
   <time name="total">  161.54  161.88</time>
   <energy>
    <i name="alphaZ">   6463.29446255 </i>
    <i name="ewald"> 664535.14935852 </i>
    <i name="hartreedc">-815290.04192508 </i>
    <i name="XCdc">   5009.43415294 </i>
    <i name="pawpsdc"> 122173.85035501 </i>
    <i name="pawaedc">-138312.01710912 </i>
    <i name="eentropy">     -0.02775956 </i>
    <i name="bandstr">   8852.82458824 </i>
    <i name="atom"> 157518.83071590 </i>
    <i name="e_fr_energy">  10951.29683939 </i>
    <i name="e_wo_entrp">  10951.32459895 </i>
    <i name="e_0_energy">  10951.31071917 </i>
   </energy>
  </scstep>
  <scstep>
   <time name="dav">  154.79  154.96</time>
   <time name="total">  154.82  154.98</time>
   <energy>
    <i name="e_fr_energy">   1074.13078894 </i>
    <i name="e_wo_entrp">   1074.17920675 </i>
    <i name="e_0_energy">   1074.15499785 </i>
   </energy>
  </scstep>
  <scstep>
   <time name="dav">  164.23  164.44</time>
   <time name="total">  164.26  164.46</time>
   <energy>
    <i name="e_fr_energy">   -373.60737822 </i>
    <i name="e_wo_entrp">   -373.54276469 </i>
    <i name="e_0_energy">   -373.57507145 </i>
   </energy>
  </scstep>
  <scstep>
   <time name="dav">  163.05  163.21</time>
   <time name="total">  163.07  163.24</time>
   <energy>
    <i name="e_fr_energy">   -524.81847087 </i>
    <i name="e_wo_entrp">   -524.75512224 </i>
    <i name="e_0_energy">   -524.78679655 </i>
   </energy>
  </scstep>
  <scstep>
   <time name="dav">  151.02  151.15</time>
   <time name="total">  155.64  155.79</time>
   <energy>
    <i name="e_fr_energy">   -530.86857645 </i>
    <i name="e_wo_entrp">   -530.80516900 </i>
    <i name="e_0_energy">   -530.83687272 </i>
   </energy>
  </scstep>
  <scstep>
   <time name="dav">  157.45  157.59</time>
   <time name="total">  164.53  164.69</time>
   <energy>
    <i name="e_fr_energy">   -478.09993835 </i>
    <i name="e_wo_entrp">   -478.04359923 </i>
    <i name="e_0_energy">   -478.07176879 </i>
   </energy>
  </scstep>
  <scstep>
   <time name="dav">  175.86  176.13</time>
   <time name="total">  181.58  181.86</time>
   <energy>
    <i name="e_fr_energy">   -511.67008802 </i>
    <i name="e_wo_entrp">   -511.54703608 </i>
    <i name="e_0_energy">   -511.60856205 </i>
   </energy>
  </scstep>
  <scstep>
   <time name="dav">  195.30  195.48</time>
   <time name="total">  201.54  201.78</time>
   <energy>
    <i name="e_fr_energy">   -444.97770630 </i>
    <i name="e_wo_entrp">   -444.89350787 </i>
    <i name="e_0_energy">   -444.93560708 </i>
   </energy>
  </scstep>
  <scstep>
   <time name="dav">  196.21  196.39</time>
   <time name="total">  201.27  201.46</time>
   <energy>
    <i name="e_fr_energy">   -428.55355368 </i>
    <i name="e_wo_entrp">   -428.51448722 </i>
    <i name="e_0_energy">   -428.53402045 </i>
   </energy>
  </scstep>
  <scstep>
   <time name="dav">  180.32  180.67</time>
   <time name="total">  185.30  185.69</time>
   <energy>
    <i name="e_fr_energy">   -429.30939139 </i>
    <i name="e_wo_entrp">   -429.25608626 </i>
    <i name="e_0_energy">   -429.28273883 </i>
   </energy>
  </scstep>
  <scstep>
   <time name="dav">  168.58  168.77</time>
   <time name="total">  173.61  173.83</time>
   <energy>
    <i name="e_fr_energy">   -427.93934553 </i>
    <i name="e_wo_entrp">   -427.87291740 </i>
    <i name="e_0_energy">   -427.90613147 </i>
   </energy>
  </scstep>
  <scstep>
   <time name="dav">  177.36  177.52</time>
   <time name="total">  182.36  182.56</time>
   <energy>
    <i name="e_fr_energy">   -427.69929150 </i>
    <i name="e_wo_entrp">   -427.64428173 </i>
    <i name="e_0_energy">   -427.67178662 </i>
   </energy>
  </scstep>
  <scstep>
   <time name="dav">  168.52  168.69</time>
   <time name="total">  173.71  173.92</time>
   <energy>
    <i name="e_fr_energy">   -427.64572214 </i>
    <i name="e_wo_entrp">   -427.59087517 </i>
    <i name="e_0_energy">   -427.61829865 </i>
   </energy>
  </scstep>
  <scstep>
   <time name="dav">  166.25  166.56</time>
   <time name="total">  171.33  172.31</time>
   <energy>
    <i name="e_fr_energy">   -427.54125615 </i>
    <i name="e_wo_entrp">   -427.49194168 </i>
    <i name="e_0_energy">   -427.51659891 </i>
   </energy>
  </scstep>
  <scstep>
   <time name="dav">  168.18  168.38</time>
   <time name="total">  173.16  173.36</time>
   <energy>
    <i name="e_fr_energy">   -427.61231528 </i>
    <i name="e_wo_entrp">   -427.56381921 </i>
    <i name="e_0_energy">   -427.58806725 </i>
   </energy>
  </scstep>
  <scstep>
   <time name="dav">  156.93  157.14</time>
   <time name="total">  161.96  162.17</time>
   <energy>
    <i name="e_fr_energy">   -427.51308634 </i>
    <i name="e_wo_entrp">   -427.46342846 </i>
    <i name="e_0_energy">   -427.48825740 </i>
   </energy>
  </scstep>
  <scstep>
   <time name="dav">  162.41  162.57</time>
   <time name="total">  169.34  169.51</time>
   <energy>
    <i name="e_fr_energy">   -427.47901765 </i>
    <i name="e_wo_entrp">   -427.42778133 </i>
    <i name="e_0_energy">   -427.45339949 </i>
   </energy>
  </scstep>
  <scstep>
   <time name="dav">  181.85  182.02</time>
   <time name="total">  186.87  187.04</time>
   <energy>
    <i name="e_fr_energy">   -427.46503460 </i>
    <i name="e_wo_entrp">   -427.41245452 </i>
    <i name="e_0_energy">   -427.43874456 </i>
   </energy>
  </scstep>
  <scstep>
   <time name="dav">  161.90  162.06</time>
   <time name="total">  166.91  167.06</time>
   <energy>
    <i name="e_fr_energy">   -427.46485321 </i>
    <i name="e_wo_entrp">   -427.41170367 </i>
    <i name="e_0_energy">   -427.43827844 </i>
   </energy>
  </scstep>
  <scstep>
   <time name="dav">  158.40  158.57</time>
   <time name="total">  163.47  163.64</time>
   <energy>
    <i name="e_fr_energy">   -427.46534957 </i>
    <i name="e_wo_entrp">   -427.41201378 </i>
    <i name="e_0_energy">   -427.43868167 </i>
   </energy>
  </scstep>
  <scstep>
   <time name="dav">  158.92  159.07</time>
   <time name="total">  163.92  164.08</time>
   <energy>
    <i name="e_fr_energy">   -427.46572310 </i>
    <i name="e_wo_entrp">   -427.41210131 </i>
    <i name="e_0_energy">   -427.43891221 </i>
   </energy>
  </scstep>
  <scstep>
   <time name="dav">  158.32  158.46</time>
   <time name="total">  163.41  163.58</time>
   <energy>
    <i name="e_fr_energy">   -427.46584518 </i>
    <i name="e_wo_entrp">   -427.41241142 </i>
    <i name="e_0_energy">   -427.43912830 </i>
   </energy>
  </scstep>
  <scstep>
   <time name="dav">  154.24  154.38</time>
   <time name="total">  159.22  159.37</time>
   <energy>
    <i name="e_fr_energy">   -427.46582414 </i>
    <i name="e_wo_entrp">   -427.41247369 </i>
    <i name="e_0_energy">   -427.43914892 </i>
   </energy>
  </scstep>
  <scstep>
   <time name="dav">  158.43  158.59</time>
   <time name="total">  165.31  165.48</time>
   <energy>
    <i name="e_fr_energy">   -427.46596082 </i>
    <i name="e_wo_entrp">   -427.41259820 </i>
    <i name="e_0_energy">   -427.43927951 </i>
   </energy>
  </scstep>
  <scstep>
   <time name="dav">  168.12  168.32</time>
   <time name="total">  173.13  173.34</time>
   <energy>
    <i name="e_fr_energy">   -427.46611796 </i>
    <i name="e_wo_entrp">   -427.41279502 </i>
    <i name="e_0_energy">   -427.43945649 </i>
   </energy>
  </scstep>
  <scstep>
   <time name="dav">  173.66  173.86</time>
   <time name="total">  179.51  179.72</time>
   <energy>
    <i name="e_fr_energy">   -427.46635848 </i>
    <i name="e_wo_entrp">   -427.41303196 </i>
    <i name="e_0_energy">   -427.43969522 </i>
   </energy>
  </scstep>
  <scstep>
   <time name="dav">  154.26  154.40</time>
   <time name="total">  159.26  159.41</time>
   <energy>
    <i name="e_fr_energy">   -427.46657310 </i>
    <i name="e_wo_entrp">   -427.41324846 </i>
    <i name="e_0_energy">   -427.43991078 </i>
   </energy>
  </scstep>
  <scstep>
   <time name="dav">  150.39  150.55</time>
   <time name="total">  155.42  155.58</time>
   <energy>
    <i name="e_fr_energy">   -427.46678033 </i>
    <i name="e_wo_entrp">   -427.41347278 </i>
    <i name="e_0_energy">   -427.44012655 </i>
   </energy>
  </scstep>
  <scstep>
   <time name="dav">  155.03  155.17</time>
   <time name="total">  161.69  161.84</time>
   <energy>
    <i name="e_fr_energy">   -427.46690996 </i>
    <i name="e_wo_entrp">   -427.41361464 </i>
    <i name="e_0_energy">   -427.44026230 </i>
   </energy>
  </scstep>
  <scstep>
   <time name="dav">  151.37  151.51</time>
   <time name="total">  156.41  156.56</time>
   <energy>
    <i name="e_fr_energy">   -427.46702752 </i>
    <i name="e_wo_entrp">   -427.41373546 </i>
    <i name="e_0_energy">   -427.44038149 </i>
   </energy>
  </scstep>
  <scstep>
   <time name="dav">  150.95  151.09</time>
   <time name="total">  156.19  156.34</time>
   <energy>
    <i name="e_fr_energy">   -427.46712305 </i>
    <i name="e_wo_entrp">   -427.41382305 </i>
    <i name="e_0_energy">   -427.44047305 </i>
   </energy>
  </scstep>
  <scstep>
   <time name="dav">  152.17  152.31</time>
   <time name="total">  157.17  157.31</time>
   <energy>
    <i name="e_fr_energy">   -427.46719367 </i>
    <i name="e_wo_entrp">   -427.41387492 </i>
    <i name="e_0_energy">   -427.44053430 </i>
   </energy>
  </scstep>
  <scstep>
   <time name="dav">  126.69  126.81</time>
   <time name="total">  131.68  131.80</time>
   <energy>
    <i name="e_fr_energy">   -427.46722495 </i>
    <i name="e_wo_entrp">   -427.41390283 </i>
    <i name="e_0_energy">   -427.44056389 </i>
   </energy>
  </scstep>
  <scstep>
   <time name="dav">  116.02  116.13</time>
   <time name="total">  121.03  121.15</time>
   <energy>
    <i name="e_fr_energy">   -427.46724958 </i>
    <i name="e_wo_entrp">   -427.41393379 </i>
    <i name="e_0_energy">   -427.44059168 </i>
   </energy>
  </scstep>
  <scstep>
   <time name="dav">  114.04  114.15</time>
   <time name="total">  119.06  119.18</time>
   <energy>
    <i name="e_fr_energy">   -427.46726803 </i>
    <i name="e_wo_entrp">   -427.41395697 </i>
    <i name="e_0_energy">   -427.44061250 </i>
   </energy>
  </scstep>
  <scstep>
   <time name="dav">  115.66  115.78</time>
   <time name="total">  120.68  120.80</time>
   <energy>
    <i name="e_fr_energy">   -427.46727650 </i>
    <i name="e_wo_entrp">   -427.41396767 </i>
    <i name="e_0_energy">   -427.44062208 </i>
   </energy>
  </scstep>
  <scstep>
   <time name="dav">  110.42  110.52</time>
   <time name="total">  116.12  116.23</time>
   <energy>
    <i name="e_fr_energy">   -427.46728546 </i>
    <i name="e_wo_entrp">   -427.41397637 </i>
    <i name="e_0_energy">   -427.44063091 </i>
   </energy>
  </scstep>
  <scstep>
   <time name="dav">  106.20  106.30</time>
   <time name="total">  111.22  111.33</time>
   <energy>
    <i name="e_fr_energy">   -427.46728823 </i>
    <i name="e_wo_entrp">   -427.41397784 </i>
    <i name="e_0_energy">   -427.44063303 </i>
   </energy>
  </scstep>
  <scstep>
   <time name="dav">  111.85  111.96</time>
   <time name="total">  117.21  117.32</time>
   <energy>
    <i name="e_fr_energy">   -427.46729022 </i>
    <i name="e_wo_entrp">   -427.41397902 </i>
    <i name="e_0_energy">   -427.44063462 </i>
   </energy>
  </scstep>
  <scstep>
   <time name="dav">  108.84  108.94</time>
   <time name="total">  109.33  109.43</time>
   <energy>
    <i name="alphaZ">   6463.29446255 </i>
    <i name="ewald"> 664535.14935852 </i>
    <i name="hartreedc">-813326.06895072 </i>
    <i name="XCdc">   4896.83211706 </i>
    <i name="pawpsdc"> 123760.02596585 </i>
    <i name="pawaedc">-139977.09257441 </i>
    <i name="eentropy">     -0.05331136 </i>
    <i name="bandstr">  -4298.38507457 </i>
    <i name="atom"> 157518.83071590 </i>
    <i name="e_fr_energy">   -427.46729118 </i>
    <i name="e_wo_entrp">   -427.41397982 </i>
    <i name="e_0_energy">   -427.44063550 </i>
   </energy>
  </scstep>
  <structure>
   <crystal>
    <varray name="basis" >
     <v>      10.28518105       0.00000000       0.00000000 </v>
     <v>       5.14259052       8.90722807       0.00000000 </v>
     <v>       0.00000000       0.00000000      27.79016876 </v>
    </varray>
    <i name="volume">   2545.92553775 </i>
    <varray name="rec_basis" >
     <v>       0.09722726      -0.05613419       0.00000000 </v>
     <v>       0.00000000       0.11226837       0.00000000 </v>
     <v>       0.00000000       0.00000000       0.03598395 </v>
    </varray>
   </crystal>
   <varray name="positions" >
    <v>       0.00000000       0.00000000       0.22663990 </v>
    <v>       0.00000000       0.50000000       0.22663990 </v>
    <v>       0.50000000       0.00000000       0.22663990 </v>
    <v>       0.50000000       0.50000000       0.22663990 </v>
    <v>       0.00000000       0.25000000       0.22663990 </v>
    <v>       0.00000000       0.75000000       0.22663990 </v>
    <v>       0.50000000       0.25000000       0.22663990 </v>
    <v>       0.50000000       0.75000000       0.22663990 </v>
    <v>       0.25000000       0.00000000       0.22663990 </v>
    <v>       0.25000000       0.50000000       0.22663990 </v>
    <v>       0.75000000       0.00000000       0.22663990 </v>
    <v>       0.75000000       0.50000000       0.22663990 </v>
    <v>       0.25000000       0.25000000       0.22663990 </v>
    <v>       0.25000000       0.75000000       0.22663990 </v>
    <v>       0.75000000       0.25000000       0.22663990 </v>
    <v>       0.75000000       0.75000000       0.22663990 </v>
    <v>       0.16666666       0.16666666       0.30218653 </v>
    <v>       0.16666666       0.66666666       0.30218653 </v>
    <v>       0.66666666       0.16666666       0.30218653 </v>
    <v>       0.66666666       0.66666666       0.30218653 </v>
    <v>       0.16666666       0.41666666       0.30218653 </v>
    <v>       0.16666666       0.91666666       0.30218653 </v>
    <v>       0.66666666       0.41666666       0.30218653 </v>
    <v>       0.66666666       0.91666666       0.30218653 </v>
    <v>       0.41666666       0.16666666       0.30218653 </v>
    <v>       0.41666666       0.66666666       0.30218653 </v>
    <v>       0.91666666       0.16666666       0.30218653 </v>
    <v>       0.91666666       0.66666666       0.30218653 </v>
    <v>       0.41666666       0.41666666       0.30218653 </v>
    <v>       0.41666666       0.91666666       0.30218653 </v>
    <v>       0.91666666       0.41666666       0.30218653 </v>
    <v>       0.91666666       0.91666666       0.30218653 </v>
    <v>       0.08333333       0.08333333       0.37716320 </v>
    <v>       0.08333333       0.58333333       0.37716320 </v>
    <v>       0.58333333       0.08333333       0.37716320 </v>
    <v>       0.58333333       0.58333333       0.37716320 </v>
    <v>       0.08351614       0.33324190       0.37729758 </v>
    <v>       0.08351614       0.83324190       0.37729758 </v>
    <v>       0.58351614       0.33324190       0.37729758 </v>
    <v>       0.58351614       0.83324190       0.37729758 </v>
    <v>       0.33324190       0.08351614       0.37729758 </v>
    <v>       0.33324190       0.58351614       0.37729758 </v>
    <v>       0.83324190       0.08351614       0.37729758 </v>
    <v>       0.83324190       0.58351614       0.37729758 </v>
    <v>       0.33324190       0.33324190       0.37729758 </v>
    <v>       0.33324190       0.83324190       0.37729758 </v>
    <v>       0.83324190       0.33324190       0.37729758 </v>
    <v>       0.83324190       0.83324190       0.37729758 </v>
    <v>       0.00012997       0.00012997       0.45242342 </v>
    <v>       0.00012997       0.50012997       0.45242342 </v>
    <v>       0.50012997       0.00012997       0.45242342 </v>
    <v>       0.50012997       0.50012997       0.45242342 </v>
    <v>       0.00012997       0.24974005       0.45242342 </v>
    <v>       0.00012997       0.74974005       0.45242342 </v>
    <v>       0.50012997       0.24974005       0.45242342 </v>
    <v>       0.50012997       0.74974005       0.45242342 </v>
    <v>       0.24974005       0.00012997       0.45242342 </v>
    <v>       0.24974005       0.50012997       0.45242342 </v>
    <v>       0.74974005       0.00012997       0.45242342 </v>
    <v>       0.74974005       0.50012997       0.45242342 </v>
    <v>       0.25000000       0.25000000       0.45288750 </v>
    <v>       0.25000000       0.75000000       0.45288750 </v>
    <v>       0.75000000       0.25000000       0.45288750 </v>
    <v>       0.75000000       0.75000000       0.45288750 </v>
    <v>       0.16660598       0.16660598       0.52813907 </v>
    <v>       0.16660598       0.66660598       0.52813907 </v>
    <v>       0.66660598       0.16660598       0.52813907 </v>
    <v>       0.66660598       0.66660598       0.52813907 </v>
    <v>       0.16660598       0.41678801       0.52813907 </v>
    <v>       0.16660598       0.91678801       0.52813907 </v>
    <v>       0.66660598       0.41678801       0.52813907 </v>
    <v>       0.66660598       0.91678801       0.52813907 </v>
    <v>       0.41678801       0.16660598       0.52813907 </v>
    <v>       0.41678801       0.66660598       0.52813907 </v>
    <v>       0.91678801       0.16660598       0.52813907 </v>
    <v>       0.91678801       0.66660598       0.52813907 </v>
    <v>       0.41666666       0.41666666       0.52741939 </v>
    <v>       0.41666666       0.91666666       0.52741939 </v>
    <v>       0.91666666       0.41666666       0.52741939 </v>
    <v>       0.91666666       0.91666666       0.52741939 </v>
    <v>       0.08333333       0.08333333       0.60253339 </v>
    <v>       0.08333333       0.58333333       0.60253339 </v>
    <v>       0.58333333       0.08333333       0.60253339 </v>
    <v>       0.58333333       0.58333333       0.60253339 </v>
    <v>       0.08268435       0.33434529       0.60371353 </v>
    <v>       0.08130935       0.83434529       0.60320464 </v>
    <v>       0.58130935       0.33434529       0.60320464 </v>
    <v>       0.58130935       0.83434529       0.60320464 </v>
    <v>       0.33434529       0.08130935       0.60320464 </v>
    <v>       0.33434529       0.58130935       0.60320464 </v>
    <v>       0.83434529       0.08130935       0.60320464 </v>
    <v>       0.83434529       0.58130935       0.60320464 </v>
    <v>       0.33434529       0.33434529       0.60320464 </v>
    <v>       0.33434529       0.83434529       0.60320464 </v>
    <v>       0.83434529       0.33434529       0.60320464 </v>
    <v>       0.83434529       0.83434529       0.60320464 </v>
    <v>       0.49714648       0.49714648       0.68057248 </v>
    <v>       0.49714648       0.99714648       0.68057248 </v>
    <v>       0.99714648       0.49714648       0.68057248 </v>
    <v>       0.99714648       0.99714648       0.68057248 </v>
    <v>       0.49714648       0.25570704       0.68057248 </v>
    <v>       0.49714648       0.75570704       0.68057248 </v>
    <v>       0.99714648       0.25570704       0.68057248 </v>
    <v>       0.99714648       0.75570704       0.68057248 </v>
    <v>       0.25570704       0.49714648       0.68057248 </v>
    <v>       0.25570704       0.99714648       0.68057248 </v>
    <v>       0.75570704       0.49714648       0.68057248 </v>
    <v>       0.75570704       0.99714648       0.68057248 </v>
    <v>       0.25000000       0.25000000       0.67480871 </v>
    <v>       0.25000000       0.75000000       0.67480871 </v>
    <v>       0.75000000       0.25000000       0.67480871 </v>
    <v>       0.75000000       0.75000000       0.67480871 </v>
    <v>       0.08333333       0.08333333       0.72043888 </v>
    <v>       0.08333333       0.58333333       0.72043888 </v>
    <v>       0.58333333       0.08333333       0.72043888 </v>
    <v>       0.58333333       0.58333333       0.72043888 </v>
   </varray>
  </structure>
  <varray name="forces" >
   <v>       0.00793328       0.00460512       0.07158816 </v>
   <v>       0.00788297       0.00461079       0.07167628 </v>
   <v>       0.00784010       0.00453016       0.07161477 </v>
   <v>       0.00789401       0.00458122       0.07163434 </v>
   <v>      -0.00008647      -0.00912828       0.07168248 </v>
   <v>       0.00001860      -0.00911577       0.07159110 </v>
   <v>      -0.00001833      -0.00909317       0.07158326 </v>
   <v>      -0.00011627      -0.00913569       0.07162628 </v>
   <v>      -0.00777437       0.00446287       0.07154158 </v>
   <v>      -0.00784524       0.00451036       0.07163640 </v>
   <v>      -0.00789568       0.00460798       0.07164673 </v>
   <v>      -0.00789821       0.00459825       0.07166759 </v>
   <v>       0.00004476      -0.00003225       0.08626712 </v>
   <v>      -0.00010046       0.00009914       0.08636034 </v>
   <v>       0.00007840      -0.00005795       0.08630043 </v>
   <v>       0.00005778      -0.00000527       0.08634990 </v>
   <v>       0.00707896       0.00405377      -0.07990267 </v>
   <v>       0.00706202       0.00409765      -0.08004586 </v>
   <v>       0.00700300       0.00408154      -0.07992305 </v>
   <v>       0.00703998       0.00391941      -0.07999129 </v>
   <v>       0.00008797      -0.00800743      -0.07991389 </v>
   <v>      -0.00012300      -0.00816620      -0.07998996 </v>
   <v>      -0.00002560      -0.00818754      -0.07997493 </v>
   <v>      -0.00013533      -0.00818517      -0.08002921 </v>
   <v>      -0.00693516       0.00400417      -0.07996166 </v>
   <v>      -0.00670057       0.00395807      -0.07994529 </v>
   <v>      -0.00702186       0.00412294      -0.08001264 </v>
   <v>      -0.00711787       0.00410610      -0.07995236 </v>
   <v>      -0.00003876       0.00008783      -0.05914158 </v>
   <v>      -0.00010395       0.00010467      -0.05912921 </v>
   <v>       0.00005061       0.00001727      -0.05914595 </v>
   <v>      -0.00007162      -0.00000287      -0.05905547 </v>
   <v>      -0.00006452       0.00011730       0.00004368 </v>
   <v>      -0.00005854      -0.00000275       0.00001103 </v>
   <v>      -0.00001589       0.00004924       0.00001365 </v>
   <v>       0.00011366       0.00003320       0.00031414 </v>
   <v>      -0.00016085       0.00003119       0.00004289 </v>
   <v>       0.00004833      -0.00000976      -0.00009658 </v>
   <v>       0.00004458       0.00001284      -0.00008181 </v>
   <v>       0.00002828       0.00002006      -0.00007823 </v>
   <v>      -0.00004789      -0.00002218       0.00007491 </v>
   <v>      -0.00009238      -0.00007559       0.00000380 </v>
   <v>       0.00006592      -0.00006775       0.00005329 </v>
   <v>       0.00005616      -0.00014659      -0.00007570 </v>
   <v>       0.00002063       0.00002592       0.00003854 </v>
   <v>       0.00006397       0.00006213      -0.00002152 </v>
   <v>       0.00007777      -0.00004921      -0.00007170 </v>
   <v>       0.00011151      -0.00003021       0.00004715 </v>
   <v>      -0.00015254      -0.00011922      -0.00021713 </v>
   <v>      -0.00002274      -0.00014508       0.00082374 </v>
   <v>      -0.00000806      -0.00016080       0.00003020 </v>
   <v>      -0.00006479      -0.00004050       0.00002369 </v>
   <v>       0.00019486       0.00020312       0.00105865 </v>
   <v>       0.00009808       0.00008832      -0.00008570 </v>
   <v>       0.00012496       0.00010045       0.00007612 </v>
   <v>      -0.00002132       0.00011180       0.00010656 </v>
   <v>      -0.00008378      -0.00012931      -0.00010687 </v>
   <v>      -0.00000266       0.00006394      -0.00002004 </v>
   <v>      -0.00013845       0.00000725       0.00013485 </v>
   <v>       0.00012644      -0.00013045       0.00018996 </v>
   <v>      -0.00014893       0.00018644       0.00056201 </v>
   <v>      -0.00003817       0.00005692       0.00003107 </v>
   <v>      -0.00011863      -0.00018270      -0.00013822 </v>
   <v>       0.00000579       0.00005814      -0.00007010 </v>
   <v>      -0.00137554       0.01134904       0.01486079 </v>
   <v>      -0.00008626       0.00028128      -0.00026303 </v>
   <v>      -0.00017834       0.00004515      -0.00017631 </v>
   <v>       0.00052673      -0.00041537       0.00036281 </v>
   <v>      -0.00531004      -0.00238719       0.00531508 </v>
   <v>      -0.00009005       0.00054787       0.00009128 </v>
   <v>       0.00081988      -0.00026855       0.00042408 </v>
   <v>       0.00003136       0.00010562      -0.00015143 </v>
   <v>      -0.00003599      -0.00023577      -0.00055754 </v>
   <v>      -0.00008981      -0.00000185      -0.00009807 </v>
   <v>       0.00071765       0.00051642       0.00042920 </v>
   <v>      -0.00013037      -0.00033068       0.00012180 </v>
   <v>       0.00033195      -0.00002333      -0.00000354 </v>
   <v>       0.00007855       0.00012777       0.00029215 </v>
   <v>       0.01479572      -0.00923154       0.02525866 </v>
   <v>      -0.00004771      -0.00011689      -0.00010025 </v>
   <v>       0.00473464       0.01074188      -0.00133068 </v>
   <v>       0.00511961       0.01132371      -0.00168927 </v>
   <v>       0.00067343      -0.00039941      -0.00021738 </v>
   <v>       0.00084418      -0.00041037      -0.00009183 </v>
   <v>      -0.10061815       0.00618341      -0.10337249 </v>
   <v>       0.00009084       0.00017607      -0.00041020 </v>
   <v>       0.00035453      -0.00016650      -0.00053843 </v>
   <v>       0.00006291      -0.00027073      -0.00048110 </v>
   <v>       0.00390370      -0.00936662      -0.00144569 </v>
   <v>       0.00071704       0.00048874      -0.00036355 </v>
   <v>       0.00060399       0.00049217      -0.00030657 </v>
   <v>       0.00582285      -0.01290400      -0.00190857 </v>
   <v>       0.02059170       0.00037796      -0.00118931 </v>
   <v>      -0.00008719      -0.00014316      -0.00035055 </v>
   <v>       0.02708182       0.00007412      -0.00198000 </v>
   <v>      -0.00013258      -0.00004256      -0.00039770 </v>
   <v>      -0.00017293      -0.00006848      -0.00060721 </v>
   <v>       0.00062714      -0.00108103      -0.00032774 </v>
   <v>      -0.00176664       0.00970690       0.01355558 </v>
   <v>       0.00001017       0.00027890      -0.00065020 </v>
   <v>       0.00157760      -0.00015993      -0.00029130 </v>
   <v>       0.00005765       0.00008708      -0.00061975 </v>
   <v>      -0.00433171      -0.00088890       0.00462903 </v>
   <v>       0.00008118       0.00006881      -0.00005918 </v>
   <v>       0.00091871       0.00039655      -0.00075118 </v>
   <v>      -0.00006380      -0.00048310      -0.00073965 </v>
   <v>      -0.00056633      -0.00000570      -0.00149806 </v>
   <v>       0.00023337      -0.00027895      -0.00134463 </v>
   <v>       0.02460503      -0.01591272       0.03945435 </v>
   <v>      -0.00005798      -0.00006542      -0.00024928 </v>
   <v>       0.00040458       0.00014070      -0.00021312 </v>
   <v>      -0.00004516       0.00004172      -0.00004165 </v>
   <v>      -0.00098978      -0.00187406       0.00227074 </v>
   <v>       0.00114245       0.00276291       0.00345782 </v>
   <v>      -0.00132291       0.00104895       0.00160406 </v>
   <v>      -0.00006619       0.00021120       0.00142094 </v>
  </varray>
  <varray name="stress" >
   <v>      -2.07918934      -0.00011116       0.00938677 </v>
   <v>      -0.00011116      -2.07510125      -0.00520499 </v>
   <v>       0.00938676      -0.00520499      -2.15805338 </v>
  </varray>
  <energy>
   <i name="e_fr_energy">   -427.46729118 </i>
   <i name="e_wo_entrp">   -427.44063550 </i>
   <i name="e_0_energy">     -0.05331136 </i>
  </energy>
  <time name="totalsc"> 6626.42 6634.49</time>
  <eigenvalues>
   <array>
    <dimension dim="1">band</dimension>
    <dimension dim="2">kpoint</dimension>
    <dimension dim="3">spin</dimension>
    <field>eigene</field>
    <field>occ</field>
    <set>
     <set comment="spin 1">
      <set comment="kpoint 1">
       <r>  -18.6062    1.0000 </r>
       <r>  -18.5938    1.0000 </r>
       <r>  -18.5933    1.0000 </r>
       <r>  -18.5929    1.0000 </r>
       <r>   -9.4526    1.0000 </r>
       <r>   -8.9603    1.0000 </r>
       <r>   -8.1742    1.0000 </r>
       <r>   -7.5995    1.0000 </r>
       <r>   -7.5991    1.0000 </r>
       <r>   -7.5969    1.0000 </r>
       <r>   -7.5774    1.0000 </r>
       <r>   -7.5771    1.0000 </r>
       <r>   -7.5764    1.0000 </r>
       <r>   -7.2205    1.0000 </r>
       <r>   -7.2193    1.0000 </r>
       <r>   -7.2175    1.0000 </r>
       <r>   -7.1999    1.0000 </r>
       <r>   -7.1463    1.0000 </r>
       <r>   -7.1453    1.0000 </r>
       <r>   -7.1443    1.0000 </r>
       <r>   -6.6279    1.0000 </r>
       <r>   -6.6269    1.0000 </r>
       <r>   -6.6267    1.0000 </r>
       <r>   -6.4866    1.0000 </r>
       <r>   -6.4853    1.0000 </r>
       <r>   -6.4849    1.0000 </r>
       <r>   -6.2512    1.0000 </r>
       <r>   -5.9481    1.0000 </r>
       <r>   -5.9480    1.0000 </r>
       <r>   -5.9466    1.0000 </r>
       <r>   -5.7422    1.0000 </r>
       <r>   -5.7416    1.0000 </r>
       <r>   -5.7414    1.0000 </r>
       <r>   -5.6689    1.0000 </r>
       <r>   -5.6250    1.0000 </r>
       <r>   -5.6246    1.0000 </r>
       <r>   -5.4386    1.0000 </r>
       <r>   -5.4099    1.0000 </r>
       <r>   -5.4098    1.0000 </r>
       <r>   -5.4097    1.0000 </r>
       <r>   -5.3423    1.0000 </r>
       <r>   -5.3412    1.0000 </r>
       <r>   -5.3407    1.0000 </r>
       <r>   -5.3237    1.0000 </r>
       <r>   -5.2828    1.0000 </r>
       <r>   -5.2826    1.0000 </r>
       <r>   -5.2154    1.0000 </r>
       <r>   -5.2086    1.0000 </r>
       <r>   -5.2083    1.0000 </r>
       <r>   -5.2076    1.0000 </r>
       <r>   -5.1338    1.0000 </r>
       <r>   -5.1335    1.0000 </r>
       <r>   -5.1231    1.0000 </r>
       <r>   -5.0553    1.0000 </r>
       <r>   -5.0333    1.0000 </r>
       <r>   -5.0330    1.0000 </r>
       <r>   -5.0042    1.0000 </r>
       <r>   -5.0030    1.0000 </r>
       <r>   -5.0022    1.0000 </r>
       <r>   -4.9776    1.0000 </r>
       <r>   -4.9772    1.0000 </r>
       <r>   -4.9771    1.0000 </r>
       <r>   -4.9621    1.0000 </r>
       <r>   -4.9618    1.0000 </r>
       <r>   -4.9568    1.0000 </r>
       <r>   -4.9563    1.0000 </r>
       <r>   -4.9562    1.0000 </r>
       <r>   -4.9351    1.0000 </r>
       <r>   -4.8825    1.0000 </r>
       <r>   -4.8819    1.0000 </r>
       <r>   -4.8814    1.0000 </r>
       <r>   -4.8534    1.0000 </r>
       <r>   -4.8533    1.0000 </r>
       <r>   -4.8523    1.0000 </r>
       <r>   -4.8406    1.0000 </r>
       <r>   -4.8248    1.0000 </r>
       <r>   -4.8247    1.0000 </r>
       <r>   -4.8117    1.0000 </r>
       <r>   -4.8116    1.0000 </r>
       <r>   -4.8109    1.0000 </r>
       <r>   -4.7492    1.0000 </r>
       <r>   -4.7487    1.0000 </r>
       <r>   -4.7483    1.0000 </r>
       <r>   -4.7062    1.0000 </r>
       <r>   -4.7058    1.0000 </r>
       <r>   -4.7055    1.0000 </r>
       <r>   -4.7024    1.0000 </r>
       <r>   -4.6941    1.0000 </r>
       <r>   -4.6938    1.0000 </r>
       <r>   -4.6223    1.0000 </r>
       <r>   -4.6212    1.0000 </r>
       <r>   -4.6207    1.0000 </r>
       <r>   -4.5863    1.0000 </r>
       <r>   -4.5861    1.0000 </r>
       <r>   -4.5856    1.0000 </r>
       <r>   -4.5819    1.0000 </r>
       <r>   -4.5780    1.0000 </r>
       <r>   -4.5777    1.0000 </r>
       <r>   -4.5455    1.0000 </r>
       <r>   -4.5388    1.0000 </r>
       <r>   -4.5386    1.0000 </r>
       <r>   -4.5384    1.0000 </r>
       <r>   -4.5382    1.0000 </r>
       <r>   -4.5380    1.0000 </r>
       <r>   -4.5278    1.0000 </r>
       <r>   -4.5278    1.0000 </r>
       <r>   -4.5277    1.0000 </r>
       <r>   -4.5040    1.0000 </r>
       <r>   -4.5035    1.0000 </r>
       <r>   -4.5033    1.0000 </r>
       <r>   -4.4607    1.0000 </r>
       <r>   -4.4604    1.0000 </r>
       <r>   -4.4601    1.0000 </r>
       <r>   -4.4545    1.0000 </r>
       <r>   -4.4544    1.0000 </r>
       <r>   -4.4544    1.0000 </r>
       <r>   -4.4480    1.0000 </r>
       <r>   -4.4465    1.0000 </r>
       <r>   -4.4445    1.0000 </r>
       <r>   -4.4080    1.0000 </r>
       <r>   -4.4067    1.0000 </r>
       <r>   -4.4057    1.0000 </r>
       <r>   -4.3894    1.0000 </r>
       <r>   -4.3887    1.0000 </r>
       <r>   -4.3507    1.0000 </r>
       <r>   -4.3504    1.0000 </r>
       <r>   -4.3478    1.0000 </r>
       <r>   -4.3375    1.0000 </r>
       <r>   -4.2434    1.0000 </r>
       <r>   -4.2426    1.0000 </r>
       <r>   -4.2293    1.0000 </r>
       <r>   -4.2284    1.0000 </r>
       <r>   -4.2274    1.0000 </r>
       <r>   -4.2197    1.0000 </r>
       <r>   -4.2194    1.0000 </r>
       <r>   -4.2192    1.0000 </r>
       <r>   -4.2173    1.0000 </r>
       <r>   -4.2173    1.0000 </r>
       <r>   -4.2165    1.0000 </r>
       <r>   -4.2141    1.0000 </r>
       <r>   -4.2138    1.0000 </r>
       <r>   -4.2135    1.0000 </r>
       <r>   -4.2116    1.0000 </r>
       <r>   -4.2110    1.0000 </r>
       <r>   -4.2109    1.0000 </r>
       <r>   -4.1794    1.0000 </r>
       <r>   -4.1793    1.0000 </r>
       <r>   -4.1787    1.0000 </r>
       <r>   -4.0971    1.0000 </r>
       <r>   -4.0967    1.0000 </r>
       <r>   -4.0965    1.0000 </r>
       <r>   -4.0796    1.0000 </r>
       <r>   -4.0789    1.0000 </r>
       <r>   -4.0783    1.0000 </r>
       <r>   -4.0773    1.0000 </r>
       <r>   -4.0762    1.0000 </r>
       <r>   -4.0756    1.0000 </r>
       <r>   -4.0576    1.0000 </r>
       <r>   -4.0562    1.0000 </r>
       <r>   -4.0560    1.0000 </r>
       <r>   -4.0444    1.0000 </r>
       <r>   -4.0442    1.0000 </r>
       <r>   -4.0431    1.0000 </r>
       <r>   -4.0168    1.0000 </r>
       <r>   -4.0045    1.0000 </r>
       <r>   -4.0041    1.0000 </r>
       <r>   -4.0034    1.0000 </r>
       <r>   -3.9699    1.0000 </r>
       <r>   -3.9696    1.0000 </r>
       <r>   -3.9381    1.0000 </r>
       <r>   -3.9378    1.0000 </r>
       <r>   -3.9377    1.0000 </r>
       <r>   -3.9293    1.0000 </r>
       <r>   -3.9291    1.0000 </r>
       <r>   -3.9283    1.0000 </r>
       <r>   -3.9096    1.0000 </r>
       <r>   -3.9092    1.0000 </r>
       <r>   -3.9091    1.0000 </r>
       <r>   -3.8817    1.0000 </r>
       <r>   -3.8791    1.0000 </r>
       <r>   -3.8789    1.0000 </r>
       <r>   -3.8773    1.0000 </r>
       <r>   -3.8768    1.0000 </r>
       <r>   -3.8764    1.0000 </r>
       <r>   -3.8320    1.0000 </r>
       <r>   -3.8317    1.0000 </r>
       <r>   -3.8304    1.0000 </r>
       <r>   -3.8294    1.0000 </r>
       <r>   -3.8117    1.0000 </r>
       <r>   -3.8116    1.0000 </r>
       <r>   -3.8110    1.0000 </r>
       <r>   -3.7982    1.0000 </r>
       <r>   -3.7979    1.0000 </r>
       <r>   -3.7975    1.0000 </r>
       <r>   -3.7864    1.0000 </r>
       <r>   -3.7860    1.0000 </r>
       <r>   -3.7857    1.0000 </r>
       <r>   -3.7748    1.0000 </r>
       <r>   -3.7746    1.0000 </r>
       <r>   -3.7744    1.0000 </r>
       <r>   -3.7508    1.0000 </r>
       <r>   -3.7507    1.0000 </r>
       <r>   -3.7501    1.0000 </r>
       <r>   -3.7090    1.0000 </r>
       <r>   -3.7087    1.0000 </r>
       <r>   -3.7082    1.0000 </r>
       <r>   -3.7072    1.0000 </r>
       <r>   -3.7068    1.0000 </r>
       <r>   -3.7065    1.0000 </r>
       <r>   -3.6823    1.0000 </r>
       <r>   -3.6820    1.0000 </r>
       <r>   -3.6814    1.0000 </r>
       <r>   -3.6765    1.0000 </r>
       <r>   -3.6763    1.0000 </r>
       <r>   -3.6762    1.0000 </r>
       <r>   -3.6690    1.0000 </r>
       <r>   -3.6680    1.0000 </r>
       <r>   -3.6407    1.0000 </r>
       <r>   -3.6403    1.0000 </r>
       <r>   -3.6400    1.0000 </r>
       <r>   -3.6172    1.0000 </r>
       <r>   -3.6157    1.0000 </r>
       <r>   -3.6153    1.0000 </r>
       <r>   -3.6150    1.0000 </r>
       <r>   -3.6028    1.0000 </r>
       <r>   -3.6022    1.0000 </r>
       <r>   -3.6017    1.0000 </r>
       <r>   -3.6007    1.0000 </r>
       <r>   -3.6004    1.0000 </r>
       <r>   -3.5997    1.0000 </r>
       <r>   -3.5979    1.0000 </r>
       <r>   -3.5971    1.0000 </r>
       <r>   -3.5967    1.0000 </r>
       <r>   -3.5812    1.0000 </r>
       <r>   -3.5808    1.0000 </r>
       <r>   -3.5800    1.0000 </r>
       <r>   -3.5508    1.0000 </r>
       <r>   -3.5502    1.0000 </r>
       <r>   -3.5501    1.0000 </r>
       <r>   -3.5371    1.0000 </r>
       <r>   -3.5301    1.0000 </r>
       <r>   -3.5117    1.0000 </r>
       <r>   -3.5116    1.0000 </r>
       <r>   -3.4476    1.0000 </r>
       <r>   -3.4475    1.0000 </r>
       <r>   -3.4473    1.0000 </r>
       <r>   -3.4416    1.0000 </r>
       <r>   -3.4338    1.0000 </r>
       <r>   -3.4335    1.0000 </r>
       <r>   -3.4327    1.0000 </r>
       <r>   -3.4284    1.0000 </r>
       <r>   -3.4278    1.0000 </r>
       <r>   -3.4277    1.0000 </r>
       <r>   -3.4193    1.0000 </r>
       <r>   -3.4190    1.0000 </r>
       <r>   -3.4188    1.0000 </r>
       <r>   -3.4179    1.0000 </r>
       <r>   -3.4179    1.0000 </r>
       <r>   -3.4157    1.0000 </r>
       <r>   -3.4153    1.0000 </r>
       <r>   -3.4151    1.0000 </r>
       <r>   -3.4098    1.0000 </r>
       <r>   -3.3981    1.0000 </r>
       <r>   -3.3979    1.0000 </r>
       <r>   -3.3974    1.0000 </r>
       <r>   -3.3860    1.0000 </r>
       <r>   -3.3860    1.0000 </r>
       <r>   -3.3750    1.0000 </r>
       <r>   -3.3628    1.0000 </r>
       <r>   -3.3625    1.0000 </r>
       <r>   -3.3616    1.0000 </r>
       <r>   -3.3496    1.0000 </r>
       <r>   -3.3495    1.0000 </r>
       <r>   -3.3469    1.0000 </r>
       <r>   -3.3466    1.0000 </r>
       <r>   -3.3462    1.0000 </r>
       <r>   -3.3366    1.0000 </r>
       <r>   -3.3360    1.0000 </r>
       <r>   -3.3356    1.0000 </r>
       <r>   -3.3146    1.0000 </r>
       <r>   -3.3146    1.0000 </r>
       <r>   -3.3046    1.0000 </r>
       <r>   -3.3041    1.0000 </r>
       <r>   -3.3037    1.0000 </r>
       <r>   -3.2725    1.0000 </r>
       <r>   -3.2723    1.0000 </r>
       <r>   -3.2722    1.0000 </r>
       <r>   -3.2682    1.0000 </r>
       <r>   -3.2681    1.0000 </r>
       <r>   -3.2585    1.0000 </r>
       <r>   -3.2584    1.0000 </r>
       <r>   -3.2553    1.0000 </r>
[...]
       <r>   -14.5220     0.0000     8.0000 </r>
       <r>   -14.4278     0.0000     8.0000 </r>
       <r>   -14.3336     0.0000     8.0000 </r>
       <r>   -14.2394     0.0000     8.0000 </r>
       <r>   -14.1452     0.0000     8.0000 </r>
       <r>   -14.0510     0.0000     8.0000 </r>
       <r>   -13.9569     0.0000     8.0000 </r>
       <r>   -13.8627     0.0000     8.0000 </r>
       <r>   -13.7685     0.0000     8.0000 </r>
       <r>   -13.6743     0.0000     8.0000 </r>
       <r>   -13.5801     0.0000     8.0000 </r>
       <r>   -13.4859     0.0000     8.0000 </r>
       <r>   -13.3917     0.0000     8.0000 </r>
       <r>   -13.2975     0.0000     8.0000 </r>
       <r>   -13.2034     0.0000     8.0000 </r>
       <r>   -13.1092     0.0000     8.0000 </r>
       <r>   -13.0150     0.0000     8.0000 </r>
       <r>   -12.9208     0.0000     8.0000 </r>
       <r>   -12.8266     0.0000     8.0000 </r>
       <r>   -12.7324     0.0000     8.0000 </r>
       <r>   -12.6382     0.0000     8.0000 </r>
       <r>   -12.5441     0.0000     8.0000 </r>
       <r>   -12.4499     0.0000     8.0000 </r>
       <r>   -12.3557     0.0000     8.0000 </r>
       <r>   -12.2615     0.0000     8.0000 </r>
       <r>   -12.1673     0.0000     8.0000 </r>
       <r>   -12.0731     0.0000     8.0000 </r>
       <r>   -11.9789     0.0000     8.0000 </r>
       <r>   -11.8847     0.0000     8.0000 </r>
       <r>   -11.7906     0.0000     8.0000 </r>
       <r>   -11.6964     0.0000     8.0000 </r>
       <r>   -11.6022     0.0000     8.0000 </r>
       <r>   -11.5080     0.0000     8.0000 </r>
       <r>   -11.4138     0.0000     8.0000 </r>
       <r>   -11.3196     0.0000     8.0000 </r>
       <r>   -11.2254     0.0000     8.0000 </r>
       <r>   -11.1313     0.0000     8.0000 </r>
       <r>   -11.0371     0.0000     8.0000 </r>
       <r>   -10.9429     0.0000     8.0000 </r>
       <r>   -10.8487     0.0000     8.0000 </r>
       <r>   -10.7545     0.0000     8.0000 </r>
       <r>   -10.6603     0.0000     8.0000 </r>
       <r>   -10.5661     0.0000     8.0000 </r>
       <r>   -10.4719     0.0000     8.0000 </r>
       <r>   -10.3778     0.0000     8.0000 </r>
       <r>   -10.2836     0.0000     8.0000 </r>
       <r>   -10.1894     0.0000     8.0000 </r>
       <r>   -10.0952     0.0000     8.0000 </r>
       <r>   -10.0010     0.0000     8.0000 </r>
       <r>    -9.9068     0.0000     8.0000 </r>
       <r>    -9.8126     0.0000     8.0000 </r>
       <r>    -9.7185     0.0000     8.0000 </r>
       <r>    -9.6243     0.0000     8.0000 </r>
       <r>    -9.5301     0.0188     8.0018 </r>
       <r>    -9.4359     0.8950     8.0861 </r>
       <r>    -9.3417     3.2526     8.3924 </r>
       <r>    -9.2475     5.0375     8.8669 </r>
       <r>    -9.1533     0.2768     8.8930 </r>
       <r>    -9.0591     5.8372     9.4428 </r>
       <r>    -8.9650     6.2466    10.0311 </r>
       <r>    -8.8708     6.4632    10.6398 </r>
       <r>    -8.7766     6.1887    11.2227 </r>
       <r>    -8.6824     0.5784    11.2772 </r>
       <r>    -8.5882    15.4651    12.7338 </r>
       <r>    -8.4940    11.3063    13.7987 </r>
       <r>    -8.3998     6.2578    14.3881 </r>
       <r>    -8.3057     6.2065    14.9727 </r>
       <r>    -8.2115     0.8189    15.0498 </r>
       <r>    -8.1173    12.9046    16.2653 </r>
       <r>    -8.0231    14.5820    17.6387 </r>
       <r>    -7.9289    13.1840    18.8805 </r>
       <r>    -7.8347    19.7130    20.7372 </r>
       <r>    -7.7405     6.8874    21.3859 </r>
       <r>    -7.6463     5.9300    21.9444 </r>
       <r>    -7.5522    13.0482    23.1733 </r>
       <r>    -7.4580    15.8220    24.6636 </r>
       <r>    -7.3638    16.4679    26.2146 </r>
       <r>    -7.2696     8.7537    27.0391 </r>
       <r>    -7.1754    20.6720    28.9861 </r>
       <r>    -7.0812    16.2160    30.5135 </r>
       <r>    -6.9870    13.2427    31.7607 </r>
       <r>    -6.8929    16.7805    33.3412 </r>
       <r>    -6.7987    31.7658    36.3332 </r>
       <r>    -6.7045    15.1351    37.7587 </r>
       <r>    -6.6103    18.4133    39.4930 </r>
       <r>    -6.5161    13.4782    40.7625 </r>
       <r>    -6.4219    24.3569    43.0565 </r>
       <r>    -6.3277    23.6751    45.2864 </r>
       <r>    -6.2336    18.7890    47.0561 </r>
       <r>    -6.1394    46.5450    51.4400 </r>
       <r>    -6.0452    21.0099    53.4189 </r>
       <r>    -5.9510    45.9929    57.7508 </r>
       <r>    -5.8568    21.0666    59.7350 </r>
       <r>    -5.7626    20.6284    61.6779 </r>
       <r>    -5.6684    59.7818    67.3085 </r>
       <r>    -5.5742    86.9142    75.4947 </r>
       <r>    -5.4801    74.0737    82.4715 </r>
       <r>    -5.3859    60.4539    88.1654 </r>
       <r>    -5.2917    95.0674    97.1195 </r>
       <r>    -5.1975    89.5227   105.5513 </r>
       <r>    -5.1033   107.8193   115.7065 </r>
       <r>    -5.0091   119.2847   126.9415 </r>
       <r>    -4.9149   145.3284   140.6295 </r>
       <r>    -4.8208   127.7222   152.6592 </r>
       <r>    -4.7266   126.7506   164.5974 </r>
       <r>    -4.6324   166.1489   180.2464 </r>
       <r>    -4.5382   204.6587   199.5225 </r>
       <r>    -4.4440   241.2121   222.2415 </r>
       <r>    -4.3498   284.7750   249.0635 </r>
       <r>    -4.2556   253.8870   272.9763 </r>
       <r>    -4.1614   219.7550   293.6742 </r>
       <r>    -4.0673   206.5859   313.1319 </r>
       <r>    -3.9731   219.6537   333.8203 </r>
       <r>    -3.8789   272.4214   359.4788 </r>
       <r>    -3.7847   278.3501   385.6956 </r>
       <r>    -3.6905   321.7598   416.0011 </r>
       <r>    -3.5963   318.3411   445.9846 </r>
       <r>    -3.5021   325.2732   476.6210 </r>
       <r>    -3.4080   392.9903   513.6354 </r>
       <r>    -3.3138   477.6028   558.6192 </r>
       <r>    -3.2196   505.7207   606.2513 </r>
       <r>    -3.1254   438.6854   647.5696 </r>
       <r>    -3.0312   452.2233   690.1630 </r>
       <r>    -2.9370   325.9096   720.8593 </r>
       <r>    -2.8428   362.9453   755.0439 </r>
       <r>    -2.7486   346.9348   787.7206 </r>
       <r>    -2.6545   410.2154   826.3574 </r>
       <r>    -2.5603   409.4454   864.9217 </r>
       <r>    -2.4661   388.8435   901.5455 </r>
       <r>    -2.3719   429.3774   941.9871 </r>
       <r>    -2.2777   419.8147   981.5281 </r>
       <r>    -2.1835   440.6336  1023.0299 </r>
       <r>    -2.0893   530.4390  1072.9901 </r>
       <r>    -1.9952   616.1422  1131.0225 </r>
       <r>    -1.9010   434.3737  1171.9347 </r>
       <r>    -1.8068   161.9521  1187.1884 </r>
       <r>    -1.7126    69.3725  1193.7224 </r>
       <r>    -1.6184    52.2322  1198.6419 </r>
       <r>    -1.5242    58.6413  1204.1652 </r>
       <r>    -1.4300    59.2941  1209.7499 </r>
       <r>    -1.3358    89.6088  1218.1898 </r>
       <r>    -1.2417    59.3930  1223.7838 </r>
       <r>    -1.1475    35.9647  1227.1712 </r>
       <r>    -1.0533    11.6322  1228.2668 </r>
       <r>    -0.9591    47.8443  1232.7731 </r>
       <r>    -0.8649    37.8970  1236.3425 </r>
       <r>    -0.7707    44.0170  1240.4883 </r>
       <r>    -0.6765    47.0353  1244.9184 </r>
       <r>    -0.5824    58.1145  1250.3920 </r>
       <r>    -0.4882    20.2493  1252.2992 </r>
       <r>    -0.3940    34.8692  1255.5834 </r>
       <r>    -0.2998    37.6046  1259.1253 </r>
       <r>    -0.2056    41.2024  1263.0060 </r>
       <r>    -0.1114    23.6732  1265.2357 </r>
       <r>    -0.0172    35.0840  1268.5402 </r>
       <r>     0.0770    48.6720  1273.1244 </r>
       <r>     0.1711    42.4273  1277.1205 </r>
       <r>     0.2653    12.9579  1278.3410 </r>
       <r>     0.3595    25.5964  1280.7518 </r>
       <r>     0.4537    43.3621  1284.8359 </r>
       <r>     0.5479    34.0727  1288.0451 </r>
       <r>     0.6421    28.5157  1290.7309 </r>
       <r>     0.7363    54.1596  1295.8320 </r>
       <r>     0.8304    35.4749  1299.1733 </r>
       <r>     0.9246    31.4043  1302.1312 </r>
       <r>     1.0188    29.1405  1304.8758 </r>
       <r>     1.1130    29.0491  1307.6118 </r>
       <r>     1.2072    47.1806  1312.0556 </r>
       <r>     1.3014    19.5140  1313.8936 </r>
       <r>     1.3956    20.2041  1315.7965 </r>
       <r>     1.4898    37.2706  1319.3069 </r>
       <r>     1.5839    32.1412  1322.3342 </r>
       <r>     1.6781    27.8876  1324.9608 </r>
       <r>     1.7723    20.3727  1326.8797 </r>
       <r>     1.8665    41.4786  1330.7864 </r>
       <r>     1.9607    37.2317  1334.2931 </r>
       <r>     2.0549    39.3498  1337.9994 </r>
       <r>     2.1491    24.6758  1340.3235 </r>
       <r>     2.2432    37.8529  1343.8887 </r>
       <r>     2.3374    24.6597  1346.2113 </r>
       <r>     2.4316    22.4921  1348.3298 </r>
       <r>     2.5258    14.7826  1349.7221 </r>
       <r>     2.6200    11.7816  1350.8318 </r>
       <r>     2.7142    19.7001  1352.6873 </r>
       <r>     2.8084    32.5776  1355.7556 </r>
       <r>     2.9026    28.0731  1358.3998 </r>
       <r>     2.9967    27.1544  1360.9573 </r>
       <r>     3.0909    19.4402  1362.7884 </r>
       <r>     3.1851    23.4037  1364.9927 </r>
       <r>     3.2793    21.1218  1366.9821 </r>
       <r>     3.3735     8.7238  1367.8037 </r>
       <r>     3.4677    30.5804  1370.6840 </r>
       <r>     3.5619    31.9794  1373.6960 </r>
       <r>     3.6560    27.8120  1376.3155 </r>
       <r>     3.7502     7.1549  1376.9894 </r>
       <r>     3.8444    21.6572  1379.0293 </r>
       <r>     3.9386    44.4054  1383.2117 </r>
       <r>     4.0328    32.5849  1386.2807 </r>
       <r>     4.1270    42.0110  1390.2376 </r>
       <r>     4.2212    50.9950  1395.0406 </r>
       <r>     4.3154    35.2646  1398.3621 </r>
       <r>     4.4095    18.4566  1400.1005 </r>
       <r>     4.5037    23.0839  1402.2747 </r>
       <r>     4.5979    31.6365  1405.2544 </r>
       <r>     4.6921    37.9602  1408.8297 </r>
       <r>     4.7863    40.8976  1412.6817 </r>
       <r>     4.8805    47.7973  1417.1836 </r>
       <r>     4.9747    38.3008  1420.7910 </r>
       <r>     5.0688    40.1954  1424.5769 </r>
       <r>     5.1630    36.9323  1428.0554 </r>
       <r>     5.2572    28.9698  1430.7840 </r>
       <r>     5.3514    59.4053  1436.3792 </r>
       <r>     5.4456    37.1772  1439.8808 </r>
       <r>     5.5398    54.1511  1444.9811 </r>
       <r>     5.6340    34.0306  1448.1863 </r>
       <r>     5.7282    34.3838  1451.4248 </r>
       <r>     5.8223    33.5889  1454.5884 </r>
       <r>     5.9165    33.1260  1457.7085 </r>
       <r>     6.0107    61.4033  1463.4918 </r>
       <r>     6.1049    54.4568  1468.6209 </r>
       <r>     6.1991    44.6548  1472.8268 </r>
       <r>     6.2933    40.4228  1476.6341 </r>
       <r>     6.3875    36.6430  1480.0854 </r>
       <r>     6.4816    51.0387  1484.8926 </r>
       <r>     6.5758    42.5302  1488.8983 </r>
       <r>     6.6700    35.5902  1492.2505 </r>
       <r>     6.7642    37.5146  1495.7838 </r>
       <r>     6.8584    58.9011  1501.3315 </r>
       <r>     6.9526    49.0918  1505.9553 </r>
       <r>     7.0468    36.5789  1509.4006 </r>
       <r>     7.1410    26.6692  1511.9124 </r>
       <r>     7.2351     0.9296  1512.0000 </r>
       <r>     7.3293     0.0001  1512.0000 </r>
       <r>     7.4235     0.0000  1512.0000 </r>
       <r>     7.5177     0.0000  1512.0000 </r>
       <r>     7.6119     0.0000  1512.0000 </r>
       <r>     7.7061     0.0000  1512.0000 </r>
       <r>     7.8003     0.0000  1512.0000 </r>
       <r>     7.8944     0.0000  1512.0000 </r>
       <r>     7.9886     0.0000  1512.0000 </r>
       <r>     8.0828     0.0000  1512.0000 </r>
       <r>     8.1770     0.0000  1512.0000 </r>
       <r>     8.2712     0.0000  1512.0000 </r>
       <r>     8.3654     0.0000  1512.0000 </r>
      </set>
     </set>
    </array>
   </total>
  </dos>
 </calculation>
 <structure name="finalpos" >
  <crystal>
   <varray name="basis" >
    <v>      10.28518105       0.00000000       0.00000000 </v>
    <v>       5.14259052       8.90722807       0.00000000 </v>
    <v>       0.00000000       0.00000000      27.79016876 </v>
   </varray>
   <i name="volume">   2545.92553775 </i>
   <varray name="rec_basis" >
    <v>       0.09722726      -0.05613419       0.00000000 </v>
    <v>       0.00000000       0.11226837       0.00000000 </v>
    <v>       0.00000000       0.00000000       0.03598395 </v>
   </varray>
  </crystal>
  <varray name="positions" >
   <v>       0.00000000       0.00000000       0.22663990 </v>
   <v>       0.00000000       0.50000000       0.22663990 </v>
   <v>       0.50000000       0.00000000       0.22663990 </v>
   <v>       0.50000000       0.50000000       0.22663990 </v>
   <v>       0.00000000       0.25000000       0.22663990 </v>
   <v>       0.00000000       0.75000000       0.22663990 </v>
   <v>       0.50000000       0.25000000       0.22663990 </v>
   <v>       0.50000000       0.75000000       0.22663990 </v>
   <v>       0.25000000       0.00000000       0.22663990 </v>
   <v>       0.25000000       0.50000000       0.22663990 </v>
   <v>       0.75000000       0.00000000       0.22663990 </v>
   <v>       0.75000000       0.50000000       0.22663990 </v>
   <v>       0.25000000       0.25000000       0.22663990 </v>
   <v>       0.25000000       0.75000000       0.22663990 </v>
   <v>       0.75000000       0.25000000       0.22663990 </v>
   <v>       0.75000000       0.75000000       0.22663990 </v>
   <v>       0.16666666       0.16666666       0.30218653 </v>
   <v>       0.16666666       0.66666666       0.30218653 </v>
   <v>       0.66666666       0.16666666       0.30218653 </v>
   <v>       0.66666666       0.66666666       0.30218653 </v>
   <v>       0.16666666       0.41666666       0.30218653 </v>
   <v>       0.16666666       0.91666666       0.30218653 </v>
   <v>       0.66666666       0.41666666       0.30218653 </v>
   <v>       0.66666666       0.91666666       0.30218653 </v>
   <v>       0.41666666       0.16666666       0.30218653 </v>
   <v>       0.41666666       0.66666666       0.30218653 </v>
   <v>       0.91666666       0.16666666       0.30218653 </v>
   <v>       0.91666666       0.66666666       0.30218653 </v>
   <v>       0.41666666       0.41666666       0.30218653 </v>
   <v>       0.41666666       0.91666666       0.30218653 </v>
   <v>       0.91666666       0.41666666       0.30218653 </v>
   <v>       0.91666666       0.91666666       0.30218653 </v>
   <v>       0.08333333       0.08333333       0.37716320 </v>
   <v>       0.08333333       0.58333333       0.37716320 </v>
   <v>       0.58333333       0.08333333       0.37716320 </v>
   <v>       0.58333333       0.58333333       0.37716320 </v>
   <v>       0.08351614       0.33324190       0.37729758 </v>
   <v>       0.08351614       0.83324190       0.37729758 </v>
   <v>       0.58351614       0.33324190       0.37729758 </v>
   <v>       0.58351614       0.83324190       0.37729758 </v>
   <v>       0.33324190       0.08351614       0.37729758 </v>
   <v>       0.33324190       0.58351614       0.37729758 </v>
   <v>       0.83324190       0.08351614       0.37729758 </v>
   <v>       0.83324190       0.58351614       0.37729758 </v>
   <v>       0.33324190       0.33324190       0.37729758 </v>
   <v>       0.33324190       0.83324190       0.37729758 </v>
   <v>       0.83324190       0.33324190       0.37729758 </v>
   <v>       0.83324190       0.83324190       0.37729758 </v>
   <v>       0.00012997       0.00012997       0.45242342 </v>
   <v>       0.00012997       0.50012997       0.45242342 </v>
   <v>       0.50012997       0.00012997       0.45242342 </v>
   <v>       0.50012997       0.50012997       0.45242342 </v>
   <v>       0.00012997       0.24974005       0.45242342 </v>
   <v>       0.00012997       0.74974005       0.45242342 </v>
   <v>       0.50012997       0.24974005       0.45242342 </v>
   <v>       0.50012997       0.74974005       0.45242342 </v>
   <v>       0.24974005       0.00012997       0.45242342 </v>
   <v>       0.24974005       0.50012997       0.45242342 </v>
   <v>       0.74974005       0.00012997       0.45242342 </v>
   <v>       0.74974005       0.50012997       0.45242342 </v>
   <v>       0.25000000       0.25000000       0.45288750 </v>
   <v>       0.25000000       0.75000000       0.45288750 </v>
   <v>       0.75000000       0.25000000       0.45288750 </v>
   <v>       0.75000000       0.75000000       0.45288750 </v>
   <v>       0.16660598       0.16660598       0.52813907 </v>
   <v>       0.16660598       0.66660598       0.52813907 </v>
   <v>       0.66660598       0.16660598       0.52813907 </v>
   <v>       0.66660598       0.66660598       0.52813907 </v>
   <v>       0.16660598       0.41678801       0.52813907 </v>
   <v>       0.16660598       0.91678801       0.52813907 </v>
   <v>       0.66660598       0.41678801       0.52813907 </v>
   <v>       0.66660598       0.91678801       0.52813907 </v>
   <v>       0.41678801       0.16660598       0.52813907 </v>
   <v>       0.41678801       0.66660598       0.52813907 </v>
   <v>       0.91678801       0.16660598       0.52813907 </v>
   <v>       0.91678801       0.66660598       0.52813907 </v>
   <v>       0.41666666       0.41666666       0.52741939 </v>
   <v>       0.41666666       0.91666666       0.52741939 </v>
   <v>       0.91666666       0.41666666       0.52741939 </v>
   <v>       0.91666666       0.91666666       0.52741939 </v>
   <v>       0.08333333       0.08333333       0.60253339 </v>
   <v>       0.08333333       0.58333333       0.60253339 </v>
   <v>       0.58333333       0.08333333       0.60253339 </v>
   <v>       0.58333333       0.58333333       0.60253339 </v>
   <v>       0.08268435       0.33434529       0.60371353 </v>
   <v>       0.08130935       0.83434529       0.60320464 </v>
   <v>       0.58130935       0.33434529       0.60320464 </v>
   <v>       0.58130935       0.83434529       0.60320464 </v>
   <v>       0.33434529       0.08130935       0.60320464 </v>
   <v>       0.33434529       0.58130935       0.60320464 </v>
   <v>       0.83434529       0.08130935       0.60320464 </v>
   <v>       0.83434529       0.58130935       0.60320464 </v>
   <v>       0.33434529       0.33434529       0.60320464 </v>
   <v>       0.33434529       0.83434529       0.60320464 </v>
   <v>       0.83434529       0.33434529       0.60320464 </v>
   <v>       0.83434529       0.83434529       0.60320464 </v>
   <v>       0.49714648       0.49714648       0.68057248 </v>
   <v>       0.49714648       0.99714648       0.68057248 </v>
   <v>       0.99714648       0.49714648       0.68057248 </v>
   <v>       0.99714648       0.99714648       0.68057248 </v>
   <v>       0.49714648       0.25570704       0.68057248 </v>
   <v>       0.49714648       0.75570704       0.68057248 </v>
   <v>       0.99714648       0.25570704       0.68057248 </v>
   <v>       0.99714648       0.75570704       0.68057248 </v>
   <v>       0.25570704       0.49714648       0.68057248 </v>
   <v>       0.25570704       0.99714648       0.68057248 </v>
   <v>       0.75570704       0.49714648       0.68057248 </v>
   <v>       0.75570704       0.99714648       0.68057248 </v>
   <v>       0.25000000       0.25000000       0.67480871 </v>
   <v>       0.25000000       0.75000000       0.67480871 </v>
   <v>       0.75000000       0.25000000       0.67480871 </v>
   <v>       0.75000000       0.75000000       0.67480871 </v>
   <v>       0.08333333       0.08333333       0.72043888 </v>
   <v>       0.08333333       0.58333333       0.72043888 </v>
   <v>       0.58333333       0.08333333       0.72043888 </v>
   <v>       0.58333333       0.58333333       0.72043888 </v>
  </varray>
 </structure>
</modeling>
