<?xml version="1.0" encoding="ISO-8859-1"?>
<modeling>
 <generator>
  <i name="program" type="string">vasp </i>
  <i name="version" type="string">5.4.4.18Apr17-6-g9f103f2a35  </i>
  <i name="subversion" type="string">(build Feb 09 2021 16:27:36) complex            parallel </i>
  <i name="platform" type="string">IFC15_impi </i>
  <i name="date" type="string">2021 04 29 </i>
  <i name="time" type="string">03:37:24 </i>
 </generator>
 <incar>
  <i type="int" name="ISTART">     0</i>
  <i type="string" name="PREC">a</i>
  <i type="logical" name="ADDGRID"> T  </i>
  <i type="int" name="NELM">   300</i>
  <i type="int" name="NELMIN">     5</i>
  <i type="int" name="IBRION">    -1</i>
  <i name="EDIFF">      0.00000100</i>
  <i name="ENCUT">    500.00000000</i>
  <i type="logical" name="LREAL"> F  </i>
  <i type="int" name="ISMEAR">     0</i>
  <i name="SIGMA">      0.05000000</i>
  <i type="logical" name="LWAVE"> F  </i>
  <i type="logical" name="LCHARG"> F  </i>
  <v type="int" name="KPOINT_BSE">    -1     0     0     0</v>
  <i type="int" name="NELM">   300</i>
 </incar>
 <structure name="primitive_cell" >
  <crystal>
   <varray name="basis" >
    <v>      10.28518105       0.00000000       0.00000000 </v>
    <v>       5.14259052       8.90722807       0.00000000 </v>
    <v>       0.00000000       0.00000000      27.79016876 </v>
   </varray>
   <i name="volume">   2545.92553775 </i>
   <varray name="rec_basis" >
    <v>       0.09722726      -0.05613419       0.00000000 </v>
    <v>       0.00000000       0.11226837       0.00000000 </v>
    <v>       0.00000000       0.00000000       0.03598395 </v>
   </varray>
  </crystal>
  <varray name="positions" >
   <v>       0.00000000       0.00000000       0.22663990 </v>
   <v>       0.16666666      -0.08333334       0.30218653 </v>
   <v>      -0.08333334       0.16666666       0.30218653 </v>
   <v>       0.25000000       0.00000000       0.22663990 </v>
   <v>       0.00000000      -0.25000000       0.22663990 </v>
   <v>       0.25000000      -0.25000000       0.22663990 </v>
   <v>      -0.25000000       0.25000000       0.22663990 </v>
   <v>       0.00000000       0.25000000       0.22663990 </v>
   <v>      -0.25000000       0.00000000       0.22663990 </v>
   <v>      -0.08333334      -0.08333334       0.30218653 </v>
   <v>       0.16666666       0.16666666       0.30218653 </v>
   <v>       0.16666666      -0.33333334       0.30218653 </v>
   <v>      -0.33333334       0.16666666       0.30218653 </v>
   <v>       0.08333333       0.08333333       0.37716320 </v>
   <v>       0.08351614      -0.16675810       0.37729758 </v>
   <v>      -0.16675810       0.08351614       0.37729758 </v>
   <v>       0.41666666      -0.08333334       0.30218653 </v>
   <v>      -0.08333334       0.41666666       0.30218653 </v>
   <v>      -0.33333334       0.41666666       0.30218653 </v>
   <v>       0.41666666      -0.33333334       0.30218653 </v>
   <v>      -0.50000000       0.25000000       0.22663990 </v>
   <v>       0.25000000       0.25000000       0.22663990 </v>
   <v>       0.25000000      -0.50000000       0.22663990 </v>
   <v>      -0.25000000      -0.50000000       0.22663990 </v>
   <v>      -0.25000000      -0.25000000       0.22663990 </v>
   <v>      -0.50000000      -0.25000000       0.22663990 </v>
   <v>      -0.08333334      -0.33333334       0.30218653 </v>
   <v>      -0.33333334      -0.08333334       0.30218653 </v>
   <v>       0.33324190      -0.16675810       0.37729758 </v>
   <v>      -0.16675810       0.33324190       0.37729758 </v>
   <v>      -0.16675810      -0.16675810       0.37729758 </v>
   <v>       0.00000000      -0.50000000       0.22663990 </v>
   <v>      -0.50000000      -0.50000000       0.22663990 </v>
   <v>      -0.50000000       0.00000000       0.22663990 </v>
   <v>      -0.41666667       0.08333333       0.37716320 </v>
   <v>       0.08333333      -0.41666667       0.37716320 </v>
   <v>       0.33324190      -0.41648386       0.37729758 </v>
   <v>      -0.41648386       0.33324190       0.37729758 </v>
   <v>       0.33324190       0.08351614       0.37729758 </v>
   <v>       0.08351614       0.33324190       0.37729758 </v>
   <v>       0.16666666       0.41666666       0.30218653 </v>
   <v>       0.41666666       0.16666666       0.30218653 </v>
   <v>       0.41666666       0.41666666       0.30218653 </v>
   <v>       0.00012997       0.00012997       0.45242342 </v>
   <v>      -0.33333334      -0.33333334       0.30218653 </v>
   <v>       0.00012997       0.24974005       0.45242342 </v>
   <v>       0.24974005       0.00012997       0.45242342 </v>
   <v>      -0.25025995       0.00012997       0.45242342 </v>
   <v>       0.00012997      -0.25025995       0.45242342 </v>
   <v>       0.25000000      -0.25000000       0.45288750 </v>
   <v>      -0.25000000       0.25000000       0.45288750 </v>
   <v>      -0.41666667      -0.41666667       0.37716320 </v>
   <v>      -0.41648386      -0.16675810       0.37729758 </v>
   <v>      -0.16675810      -0.41648386       0.37729758 </v>
   <v>       0.33324190       0.33324190       0.37729758 </v>
   <v>       0.24974005      -0.49987003       0.45242342 </v>
   <v>      -0.49987003       0.24974005       0.45242342 </v>
   <v>      -0.49987003      -0.25025995       0.45242342 </v>
   <v>      -0.25025995      -0.49987003       0.45242342 </v>
   <v>       0.25000000       0.25000000       0.45288750 </v>
   <v>      -0.25000000      -0.25000000       0.45288750 </v>
   <v>       0.00012997      -0.49987003       0.45242342 </v>
   <v>      -0.49987003       0.00012997       0.45242342 </v>
   <v>      -0.49987003      -0.49987003       0.45242342 </v>
   <v>      -0.08333334      -0.08333334      -0.47258061 </v>
   <v>      -0.08321199       0.16660598      -0.47186093 </v>
   <v>       0.16660598      -0.08321199      -0.47186093 </v>
   <v>       0.16660598       0.16660598      -0.47186093 </v>
   <v>      -0.33339402       0.16660598      -0.47186093 </v>
   <v>       0.16660598      -0.33339402      -0.47186093 </v>
   <v>       0.41666666      -0.08333334      -0.47258061 </v>
   <v>      -0.08333334       0.41666666      -0.47258061 </v>
   <v>      -0.33339402      -0.08321199      -0.47186093 </v>
   <v>      -0.08321199      -0.33339402      -0.47186093 </v>
   <v>      -0.33339402       0.41678801      -0.47186093 </v>
   <v>       0.41678801      -0.33339402      -0.47186093 </v>
   <v>       0.41666666       0.41666666      -0.47258061 </v>
   <v>       0.16660598       0.41678801      -0.47186093 </v>
   <v>       0.41678801       0.16660598      -0.47186093 </v>
   <v>      -0.33339402      -0.33339402      -0.47186093 </v>
   <v>       0.08333333       0.08333333      -0.39746661 </v>
   <v>      -0.16565471       0.08130935      -0.39679536 </v>
   <v>       0.08130935      -0.16565471      -0.39679536 </v>
   <v>      -0.16565471      -0.16565471      -0.39679536 </v>
   <v>      -0.16565471       0.33434529      -0.39679536 </v>
   <v>       0.33434529      -0.16565471      -0.39679536 </v>
   <v>      -0.41666667       0.08333333      -0.39746661 </v>
   <v>       0.08333333      -0.41666667      -0.39746661 </v>
   <v>       0.08130935       0.33434529      -0.39679536 </v>
   <v>       0.33434529       0.08130935      -0.39679536 </v>
   <v>       0.33434529      -0.41869065      -0.39679536 </v>
   <v>      -0.41869065       0.33434529      -0.39679536 </v>
   <v>      -0.41666667      -0.41666667      -0.39746661 </v>
   <v>      -0.41869065      -0.16565471      -0.39679536 </v>
   <v>      -0.16565471      -0.41869065      -0.39679536 </v>
   <v>       0.33434529       0.33434529      -0.39679536 </v>
   <v>      -0.00285352      -0.00285352      -0.31942752 </v>
   <v>       0.25000000      -0.25000000      -0.32519129 </v>
   <v>      -0.25000000       0.25000000      -0.32519129 </v>
   <v>      -0.24429296      -0.00285352      -0.31942752 </v>
   <v>      -0.00285352      -0.24429296      -0.31942752 </v>
   <v>      -0.00285352       0.25570704      -0.31942752 </v>
   <v>       0.25570704      -0.00285352      -0.31942752 </v>
   <v>       0.25000000       0.25000000      -0.32519129 </v>
   <v>      -0.25000000      -0.25000000      -0.32519129 </v>
   <v>       0.49714648      -0.24429296      -0.31942752 </v>
   <v>      -0.24429296       0.49714648      -0.31942752 </v>
   <v>       0.25570704       0.49714648      -0.31942752 </v>
   <v>       0.49714648       0.25570704      -0.31942752 </v>
   <v>      -0.00285352       0.49714648      -0.31942752 </v>
   <v>       0.49714648      -0.00285352      -0.31942752 </v>
   <v>       0.49714648       0.49714648      -0.31942752 </v>
   <v>       0.08195833       0.08333333      -0.28007001 </v>
   <v>      -0.41666667       0.08333333      -0.27956112 </v>
   <v>       0.08333333      -0.41666667      -0.27956112 </v>
   <v>      -0.41666667      -0.41666667      -0.27956112 </v>
  </varray>
 </structure>
 <varray name="primitive_index" >
  <v type="int" >        1 </v>
  <v type="int" >       22 </v>
  <v type="int" >       27 </v>
  <v type="int" >        9 </v>
  <v type="int" >        6 </v>
  <v type="int" >       14 </v>
  <v type="int" >       15 </v>
  <v type="int" >        5 </v>
  <v type="int" >       11 </v>
  <v type="int" >       32 </v>
  <v type="int" >       17 </v>
  <v type="int" >       18 </v>
  <v type="int" >       19 </v>
  <v type="int" >       33 </v>
  <v type="int" >       38 </v>
  <v type="int" >       43 </v>
  <v type="int" >       30 </v>
  <v type="int" >       31 </v>
  <v type="int" >       23 </v>
  <v type="int" >       26 </v>
  <v type="int" >        7 </v>
  <v type="int" >       13 </v>
  <v type="int" >       10 </v>
  <v type="int" >       12 </v>
  <v type="int" >       16 </v>
  <v type="int" >        8 </v>
  <v type="int" >       28 </v>
  <v type="int" >       24 </v>
  <v type="int" >       46 </v>
  <v type="int" >       47 </v>
  <v type="int" >       48 </v>
  <v type="int" >        2 </v>
  <v type="int" >        4 </v>
  <v type="int" >        3 </v>
  <v type="int" >       35 </v>
  <v type="int" >       34 </v>
  <v type="int" >       42 </v>
  <v type="int" >       39 </v>
  <v type="int" >       41 </v>
  <v type="int" >       37 </v>
  <v type="int" >       21 </v>
  <v type="int" >       25 </v>
  <v type="int" >       29 </v>
  <v type="int" >       49 </v>
  <v type="int" >       20 </v>
  <v type="int" >       53 </v>
  <v type="int" >       57 </v>
  <v type="int" >       59 </v>
  <v type="int" >       54 </v>
  <v type="int" >       62 </v>
  <v type="int" >       63 </v>
  <v type="int" >       36 </v>
  <v type="int" >       40 </v>
  <v type="int" >       44 </v>
  <v type="int" >       45 </v>
  <v type="int" >       58 </v>
  <v type="int" >       55 </v>
  <v type="int" >       56 </v>
  <v type="int" >       60 </v>
  <v type="int" >       61 </v>
  <v type="int" >       64 </v>
  <v type="int" >       50 </v>
  <v type="int" >       51 </v>
  <v type="int" >       52 </v>
  <v type="int" >       80 </v>
  <v type="int" >       75 </v>
  <v type="int" >       70 </v>
  <v type="int" >       65 </v>
  <v type="int" >       67 </v>
  <v type="int" >       66 </v>
  <v type="int" >       78 </v>
  <v type="int" >       79 </v>
  <v type="int" >       72 </v>
  <v type="int" >       76 </v>
  <v type="int" >       71 </v>
  <v type="int" >       74 </v>
  <v type="int" >       77 </v>
  <v type="int" >       69 </v>
  <v type="int" >       73 </v>
  <v type="int" >       68 </v>
  <v type="int" >       81 </v>
  <v type="int" >       91 </v>
  <v type="int" >       86 </v>
  <v type="int" >       96 </v>
  <v type="int" >       95 </v>
  <v type="int" >       94 </v>
  <v type="int" >       83 </v>
  <v type="int" >       82 </v>
  <v type="int" >       85 </v>
  <v type="int" >       89 </v>
  <v type="int" >       90 </v>
  <v type="int" >       87 </v>
  <v type="int" >       84 </v>
  <v type="int" >       88 </v>
  <v type="int" >       92 </v>
  <v type="int" >       93 </v>
  <v type="int" >      100 </v>
  <v type="int" >      110 </v>
  <v type="int" >      111 </v>
  <v type="int" >      108 </v>
  <v type="int" >      104 </v>
  <v type="int" >      103 </v>
  <v type="int" >      106 </v>
  <v type="int" >      109 </v>
  <v type="int" >      112 </v>
  <v type="int" >      102 </v>
  <v type="int" >      107 </v>
  <v type="int" >      105 </v>
  <v type="int" >      101 </v>
  <v type="int" >       99 </v>
  <v type="int" >       98 </v>
  <v type="int" >       97 </v>
  <v type="int" >      113 </v>
  <v type="int" >      115 </v>
  <v type="int" >      114 </v>
  <v type="int" >      116 </v>
 </varray>
 <kpoints>
  <generation param="Gamma">
   <v type="int" name="divisions">       4        4        1 </v>
   <v name="usershift">      0.00000000       0.00000000       0.00000000 </v>
   <v name="genvec1">      0.25000000      -0.00000000       0.00000000 </v>
   <v name="genvec2">      0.00000000       0.25000000       0.00000000 </v>
   <v name="genvec3">      0.00000000       0.00000000       1.00000000 </v>
   <v name="shift">      0.00000000       0.00000000       0.00000000 </v>
  </generation>
  <varray name="kpointlist" >
   <v>       0.00000000       0.00000000       0.00000000 </v>
   <v>       0.25000000      -0.00000000       0.00000000 </v>
   <v>       0.50000000      -0.00000000       0.00000000 </v>
   <v>       0.00000000       0.25000000       0.00000000 </v>
   <v>       0.25000000       0.25000000       0.00000000 </v>
   <v>       0.50000000       0.25000000       0.00000000 </v>
   <v>      -0.25000000       0.25000000       0.00000000 </v>
   <v>       0.00000000       0.50000000       0.00000000 </v>
   <v>       0.25000000       0.50000000       0.00000000 </v>
   <v>       0.50000000       0.50000000       0.00000000 </v>
  </varray>
  <varray name="weights" >
   <v>       0.06250000 </v>
   <v>       0.12500000 </v>
   <v>       0.06250000 </v>
   <v>       0.12500000 </v>
   <v>       0.12500000 </v>
   <v>       0.12500000 </v>
   <v>       0.12500000 </v>
   <v>       0.06250000 </v>
   <v>       0.12500000 </v>
   <v>       0.06250000 </v>
  </varray>
 </kpoints>
 <parameters>
  <separator name="general" >
   <i type="string" name="SYSTEM">unknown system</i>
   <i type="logical" name="LCOMPAT"> F  </i>
  </separator>
  <separator name="electronic" >
   <i type="string" name="PREC">a</i>
   <i name="ENMAX">    500.00000000</i>
   <i name="ENAUG">    605.39200000</i>
   <i name="EDIFF">      0.00000100</i>
   <i type="int" name="IALGO">    38</i>
   <i type="int" name="IWAVPR">    10</i>
   <i type="int" name="NBANDS">   756</i>
   <i name="NELECT">   1256.00000000</i>
   <i type="int" name="TURBO">     0</i>
   <i type="int" name="IRESTART">     0</i>
   <i type="int" name="NREBOOT">     0</i>
   <i type="int" name="NMIN">     0</i>
   <i name="EREF">      0.00000000</i>
   <separator name="electronic smearing" >
    <i type="int" name="ISMEAR">     0</i>
    <i name="SIGMA">      0.05000000</i>
    <i name="KSPACING">      0.50000000</i>
    <i type="logical" name="KGAMMA"> T  </i>
   </separator>
   <separator name="electronic projectors" >
    <i type="logical" name="LREAL"> F  </i>
    <v name="ROPT">      0.00000000      0.00000000</v>
    <i type="int" name="LMAXPAW">  -100</i>
    <i type="int" name="LMAXMIX">     2</i>
    <i type="logical" name="NLSPLINE"> F  </i>
   </separator>
   <separator name="electronic startup" >
    <i type="int" name="ISTART">     0</i>
    <i type="int" name="ICHARG">     2</i>
    <i type="int" name="INIWAV">     1</i>
   </separator>
   <separator name="electronic spin" >
    <i type="int" name="ISPIN">     1</i>
    <i type="logical" name="LNONCOLLINEAR"> F  </i>
    <v name="MAGMOM">      1.00000000      1.00000000      1.00000000      1.00000000      1.00000000      1.00000000      1.00000000      1.00000000      1.00000000      1.00000000      1.00000000      1.00000000      1.00000000      1.00000000      1.00000000      1.00000000      1.00000000      1.00000000      1.00000000      1.00000000
      1.00000000      1.00000000      1.00000000      1.00000000      1.00000000      1.00000000      1.00000000      1.00000000      1.00000000      1.00000000      1.00000000      1.00000000      1.00000000      1.00000000      1.00000000      1.00000000      1.00000000      1.00000000      1.00000000      1.00000000
      1.00000000      1.00000000      1.00000000      1.00000000      1.00000000      1.00000000      1.00000000      1.00000000      1.00000000      1.00000000      1.00000000      1.00000000      1.00000000      1.00000000      1.00000000      1.00000000      1.00000000      1.00000000      1.00000000      1.00000000
      1.00000000      1.00000000      1.00000000      1.00000000      1.00000000      1.00000000      1.00000000      1.00000000      1.00000000      1.00000000      1.00000000      1.00000000      1.00000000      1.00000000      1.00000000      1.00000000      1.00000000      1.00000000      1.00000000      1.00000000
      1.00000000      1.00000000      1.00000000      1.00000000      1.00000000      1.00000000      1.00000000      1.00000000      1.00000000      1.00000000      1.00000000      1.00000000      1.00000000      1.00000000      1.00000000      1.00000000      1.00000000      1.00000000      1.00000000      1.00000000
      1.00000000      1.00000000      1.00000000      1.00000000      1.00000000      1.00000000      1.00000000      1.00000000      1.00000000      1.00000000      1.00000000      1.00000000      1.00000000      1.00000000      1.00000000      1.00000000</v>
    <i name="NUPDOWN">     -1.00000000</i>
    <i type="logical" name="LSORBIT"> F  </i>
    <v name="SAXIS">      0.00000000      0.00000000      1.00000000</v>
    <i type="logical" name="LSPIRAL"> F  </i>
    <v name="QSPIRAL">      0.00000000      0.00000000      0.00000000</v>
    <i type="logical" name="LZEROZ"> F  </i>
   </separator>
   <separator name="electronic exchange-correlation" >
    <i type="logical" name="LASPH"> F  </i>
    <i type="logical" name="LMETAGGA"> F  </i>
   </separator>
   <separator name="electronic convergence" >
    <i type="int" name="NELM">   300</i>
    <i type="int" name="NELMDL">    -5</i>
    <i type="int" name="NELMIN">     5</i>
    <i name="ENINI">    500.00000000</i>
    <separator name="electronic convergence detail" >
     <i type="logical" name="LDIAG"> T  </i>
     <i type="logical" name="LSUBROT"> F  </i>
     <i name="WEIMIN">      0.00000000</i>
     <i name="EBREAK">      0.00000000</i>
     <i name="DEPER">      0.30000000</i>
     <i type="int" name="NRMM">     4</i>
     <i name="TIME">      0.40000000</i>
    </separator>
   </separator>
   <separator name="electronic mixer" >
    <i name="AMIX">      0.40000000</i>
    <i name="BMIX">      1.00000000</i>
    <i name="AMIN">      0.10000000</i>
    <i name="AMIX_MAG">      1.60000000</i>
    <i name="BMIX_MAG">      1.00000000</i>
    <separator name="electronic mixer details" >
     <i type="int" name="IMIX">     4</i>
     <i type="logical" name="MIXFIRST"> F  </i>
     <i type="int" name="MAXMIX">   -45</i>
     <i name="WC">    100.00000000</i>
     <i type="int" name="INIMIX">     1</i>
     <i type="int" name="MIXPRE">     1</i>
     <i type="int" name="MREMOVE">     5</i>
    </separator>
   </separator>
   <separator name="electronic dipolcorrection" >
    <i type="logical" name="LDIPOL"> F  </i>
    <i type="logical" name="LMONO"> F  </i>
    <i type="int" name="IDIPOL">     0</i>
    <i name="EPSILON">      1.00000000</i>
    <v name="DIPOL">   -100.00000000   -100.00000000   -100.00000000</v>
    <i name="EFIELD">      0.00000000</i>
   </separator>
  </separator>
  <separator name="grids" >
   <i type="int" name="NGX">    80</i>
   <i type="int" name="NGY">    80</i>
   <i type="int" name="NGZ">   210</i>
   <i type="int" name="NGXF">   160</i>
   <i type="int" name="NGYF">   160</i>
   <i type="int" name="NGZF">   420</i>
   <i type="logical" name="ADDGRID"> T  </i>
  </separator>
  <separator name="ionic" >
   <i type="int" name="NSW">     0</i>
   <i type="int" name="IBRION">    -1</i>
   <i type="int" name="MDALGO">     0</i>
   <i type="int" name="ISIF">     2</i>
   <i name="PSTRESS">      0.00000000</i>
   <i name="EDIFFG">      0.00001000</i>
   <i type="int" name="NFREE">     0</i>
   <i name="POTIM">      0.50000000</i>
   <i name="SMASS">     -3.00000000</i>
   <i name="SCALEE">      1.00000000</i>
  </separator>
  <separator name="ionic md" >
   <i name="TEBEG">      0.00010000</i>
   <i name="TEEND">      0.00010000</i>
   <i type="int" name="NBLOCK">     1</i>
   <i type="int" name="KBLOCK">     1</i>
   <i type="int" name="NPACO">   256</i>
   <i name="APACO">     16.00000000</i>
  </separator>
  <separator name="symmetry" >
   <i type="int" name="ISYM">     2</i>
   <i name="SYMPREC">      0.00001000</i>
  </separator>
  <separator name="dos" >
   <i type="int" name="LORBIT">     0</i>
   <v name="RWIGS">     -1.00000000     -1.00000000</v>
   <i type="int" name="NEDOS">   301</i>
   <i name="EMIN">     10.00000000</i>
   <i name="EMAX">    -10.00000000</i>
   <i name="EFERMI">      0.00000000</i>
  </separator>
  <separator name="writing" >
   <i type="int" name="NWRITE">     2</i>
   <i type="logical" name="LWAVE"> F  </i>
   <i type="logical" name="LDOWNSAMPLE"> F  </i>
   <i type="logical" name="LCHARG"> F  </i>
   <i type="logical" name="LPARD"> F  </i>
   <i type="logical" name="LVTOT"> F  </i>
   <i type="logical" name="LVHAR"> F  </i>
   <i type="logical" name="LELF"> F  </i>
   <i type="logical" name="LOPTICS"> F  </i>
   <v name="STM">      0.00000000      0.00000000      0.00000000      0.00000000      0.00000000      0.00000000      0.00000000</v>
  </separator>
  <separator name="performance" >
   <i type="int" name="NPAR">     4</i>
   <i type="int" name="NSIM">     4</i>
   <i type="int" name="NBLK">    -1</i>
   <i type="logical" name="LPLANE"> T  </i>
   <i type="logical" name="LSCALAPACK"> F  </i>
   <i type="logical" name="LSCAAWARE"> F  </i>
   <i type="logical" name="LSCALU"> F  </i>
   <i type="logical" name="LASYNC"> F  </i>
   <i type="logical" name="LORBITALREAL"> F  </i>
  </separator>
  <separator name="miscellaneous" >
   <i type="int" name="IDIOT">     3</i>
   <i type="int" name="ISPECIAL">     0</i>
   <i type="logical" name="LMUSIC"> F  </i>
   <v name="POMASS">     63.54600000     16.00000000</v>
   <v name="DARWINR">      0.00000000      0.00000000</v>
   <v name="DARWINV">      1.00000000      1.00000000</v>
   <i type="logical" name="LCORR"> T  </i>
  </separator>
  <i type="logical" name="GGA_COMPAT"> T  </i>
  <i type="logical" name="LBERRY"> F  </i>
  <i type="int" name="ICORELEVEL">     0</i>
  <i type="logical" name="LDAU"> F  </i>
  <i type="int" name="I_CONSTRAINED_M">     0</i>
  <separator name="electronic exchange-correlation" >
   <i type="string" name="GGA">--</i>
   <i type="int" name="VOSKOWN">     0</i>
   <i type="logical" name="LHFCALC"> F  </i>
   <i type="string" name="PRECFOCK"></i>
   <i type="logical" name="LSYMGRAD"> F  </i>
   <i type="logical" name="LHFONE"> F  </i>
   <i type="logical" name="LRHFCALC"> F  </i>
   <i type="logical" name="LTHOMAS"> F  </i>
   <i type="logical" name="LMODELHF"> F  </i>
   <i name="ENCUT4O">     -1.00000000</i>
   <i type="int" name="EXXOEP">     0</i>
   <i type="int" name="FOURORBIT">     0</i>
   <i name="AEXX">      0.00000000</i>
   <i name="HFALPHA">      0.00000000</i>
   <i name="MCALPHA">      0.00000000</i>
   <i name="ALDAX">      1.00000000</i>
   <i name="AGGAX">      1.00000000</i>
   <i name="ALDAC">      1.00000000</i>
   <i name="AGGAC">      1.00000000</i>
   <i type="int" name="NKREDX">     1</i>
   <i type="int" name="NKREDY">     1</i>
   <i type="int" name="NKREDZ">     1</i>
   <i type="logical" name="SHIFTRED"> F  </i>
   <i type="logical" name="ODDONLY"> F  </i>
   <i type="logical" name="EVENONLY"> F  </i>
   <i type="int" name="LMAXFOCK">     0</i>
   <i type="int" name="NMAXFOCKAE">     0</i>
   <i type="logical" name="LFOCKAEDFT"> F  </i>
   <i name="HFSCREEN">      0.00000000</i>
   <i name="HFSCREENC">      0.00000000</i>
   <i type="int" name="NBANDSGWLOW">     0</i>
  </separator>
  <separator name="vdW DFT" >
   <i type="logical" name="LUSE_VDW"> F  </i>
   <i name="Zab_VDW">     -0.84910000</i>
   <i name="PARAM1">      0.12340000</i>
   <i name="PARAM2">      1.00000000</i>
   <i name="PARAM3">      0.00000000</i>
  </separator>
  <separator name="model GW" >
   <i type="int" name="MODEL_GW">     0</i>
   <i name="MODEL_EPS0">     13.16858037</i>
   <i name="MODEL_ALPHA">      1.00000000</i>
  </separator>
  <separator name="linear response parameters" >
   <i type="logical" name="LEPSILON"> F  </i>
   <i type="logical" name="LRPA"> F  </i>
   <i type="logical" name="LNABLA"> F  </i>
   <i type="logical" name="LVEL"> F  </i>
   <i type="int" name="KINTER">     0</i>
   <i name="CSHIFT">      0.10000000</i>
   <i name="OMEGAMAX">     -1.00000000</i>
   <i name="DEG_THRESHOLD">      0.00200000</i>
   <i name="RTIME">     -0.10000000</i>
   <i name="WPLASMAI">      0.00000000</i>
   <v name="DFIELD">      0.00000000      0.00000000      0.00000000</v>
   <v name="WPLASMA">      0.00000000      0.00000000      0.00000000      0.00000000      0.00000000      0.00000000      0.00000000      0.00000000      0.00000000</v>
  </separator>
  <separator name="orbital magnetization" >
   <i type="logical" name="NUCIND"> F  </i>
   <v name="MAGPOS">      0.00000000      0.00000000      0.00000000</v>
   <i type="logical" name="LNICSALL"> T  </i>
   <i type="logical" name="ORBITALMAG"> F  </i>
   <i type="logical" name="LMAGBLOCH"> F  </i>
   <i type="logical" name="LCHIMAG"> F  </i>
   <i type="logical" name="LGAUGE"> T  </i>
   <i type="int" name="MAGATOM">     0</i>
   <v name="MAGDIPOL">      0.00000000      0.00000000      0.00000000</v>
   <v name="AVECCONST">      0.00000000      0.00000000      0.00000000</v>
  </separator>
  <separator name="response functions" >
   <i type="logical" name="LADDER"> F  </i>
   <i type="logical" name="LRPAFORCE"> F  </i>
   <i type="logical" name="LFXC"> F  </i>
   <i type="logical" name="LHARTREE"> T  </i>
   <i type="int" name="IBSE">     0</i>
   <v type="int" name="KPOINT">    -1     0     0     0</v>
   <i type="logical" name="LTCTE"> F  </i>
   <i type="logical" name="LTETE"> F  </i>
   <i type="logical" name="LTRIPLET"> F  </i>
   <i type="logical" name="LFXCEPS"> F  </i>
   <i type="logical" name="LFXHEG"> F  </i>
   <i type="int" name="NATURALO">     2</i>
   <i type="logical" name="L2ORDER"> F  </i>
   <i type="logical" name="LMP2LT"> F  </i>
   <i type="logical" name="LUSEW"> F  </i>
   <i name="ENCUTGW">     -2.00000000</i>
   <i name="ENCUTGWSOFT">     -2.00000000</i>
   <i name="ENCUTLF">     -1.00000000</i>
   <i type="int" name="LMAXMP2">    -1</i>
   <i name="SCISSOR">      0.00000000</i>
   <i type="int" name="NOMEGA">     0</i>
   <i type="int" name="NOMEGAR">     0</i>
   <i type="int" name="NBANDSGW">    -1</i>
   <i type="int" name="NBANDSO">    -1</i>
   <i type="int" name="NBANDSV">    -1</i>
   <i type="int" name="NELM">   300</i>
   <i type="int" name="NELMHF">     1</i>
   <i type="int" name="DIM">     3</i>
   <i type="int" name="ANTIRES">     0</i>
   <i name="OMEGAMAX">    -30.00000000</i>
   <i name="OMEGAMIN">    -30.00000000</i>
   <i name="OMEGATL">   -200.00000000</i>
   <i type="int" name="OMEGAGRID">   140</i>
   <i name="CSHIFT">     -0.10000000</i>
   <i type="logical" name="SELFENERGY"> F  </i>
   <i type="logical" name="LSPECTRAL"> F  </i>
   <i type="logical" name="LSPECTRALGW"> F  </i>
   <i type="logical" name="LSINGLES"> F  </i>
   <i type="logical" name="LFERMIGW"> F  </i>
   <i type="logical" name="ODDONLYGW"> F  </i>
   <i type="logical" name="EVENONLYGW"> F  </i>
   <i type="int" name="NKREDLFX">     1</i>
   <i type="int" name="NKREDLFY">     1</i>
   <i type="int" name="NKREDLFZ">     1</i>
   <i type="int" name="MAXMEM">  2800</i>
   <i type="int" name="TELESCOPE">     0</i>
   <i type="int" name="TAUPAR">     1</i>
   <i type="int" name="OMEGAPAR">    -1</i>
   <i name="LAMBDA">      1.00000000</i>
  </separator>
  <separator name="External order field" >
   <i name="OFIELD_KAPPA">      0.00000000</i>
   <v name="OFIELD_K">      0.00000000      0.00000000      0.00000000</v>
   <i name="OFIELD_Q6_NEAR">      0.00000000</i>
   <i name="OFIELD_Q6_FAR">      0.00000000</i>
   <i name="OFIELD_A">      0.00000000</i>
  </separator>
 </parameters>
 <atominfo>
  <atoms>     116 </atoms>
  <types>       2 </types>
  <array name="atoms" >
   <dimension dim="1">ion</dimension>
   <field type="string">element</field>
   <field type="int">atomtype</field>
   <set>
    <rc><c>Cu</c><c>   1</c></rc>
    <rc><c>Cu</c><c>   1</c></rc>
    <rc><c>Cu</c><c>   1</c></rc>
    <rc><c>Cu</c><c>   1</c></rc>
    <rc><c>Cu</c><c>   1</c></rc>
    <rc><c>Cu</c><c>   1</c></rc>
    <rc><c>Cu</c><c>   1</c></rc>
    <rc><c>Cu</c><c>   1</c></rc>
    <rc><c>Cu</c><c>   1</c></rc>
    <rc><c>Cu</c><c>   1</c></rc>
    <rc><c>Cu</c><c>   1</c></rc>
    <rc><c>Cu</c><c>   1</c></rc>
    <rc><c>Cu</c><c>   1</c></rc>
    <rc><c>Cu</c><c>   1</c></rc>
    <rc><c>Cu</c><c>   1</c></rc>
    <rc><c>Cu</c><c>   1</c></rc>
    <rc><c>Cu</c><c>   1</c></rc>
    <rc><c>Cu</c><c>   1</c></rc>
    <rc><c>Cu</c><c>   1</c></rc>
    <rc><c>Cu</c><c>   1</c></rc>
    <rc><c>Cu</c><c>   1</c></rc>
    <rc><c>Cu</c><c>   1</c></rc>
    <rc><c>Cu</c><c>   1</c></rc>
    <rc><c>Cu</c><c>   1</c></rc>
    <rc><c>Cu</c><c>   1</c></rc>
    <rc><c>Cu</c><c>   1</c></rc>
    <rc><c>Cu</c><c>   1</c></rc>
    <rc><c>Cu</c><c>   1</c></rc>
    <rc><c>Cu</c><c>   1</c></rc>
    <rc><c>Cu</c><c>   1</c></rc>
    <rc><c>Cu</c><c>   1</c></rc>
    <rc><c>Cu</c><c>   1</c></rc>
    <rc><c>Cu</c><c>   1</c></rc>
    <rc><c>Cu</c><c>   1</c></rc>
    <rc><c>Cu</c><c>   1</c></rc>
    <rc><c>Cu</c><c>   1</c></rc>
    <rc><c>Cu</c><c>   1</c></rc>
    <rc><c>Cu</c><c>   1</c></rc>
    <rc><c>Cu</c><c>   1</c></rc>
    <rc><c>Cu</c><c>   1</c></rc>
    <rc><c>Cu</c><c>   1</c></rc>
    <rc><c>Cu</c><c>   1</c></rc>
    <rc><c>Cu</c><c>   1</c></rc>
    <rc><c>Cu</c><c>   1</c></rc>
    <rc><c>Cu</c><c>   1</c></rc>
    <rc><c>Cu</c><c>   1</c></rc>
    <rc><c>Cu</c><c>   1</c></rc>
    <rc><c>Cu</c><c>   1</c></rc>
    <rc><c>Cu</c><c>   1</c></rc>
    <rc><c>Cu</c><c>   1</c></rc>
    <rc><c>Cu</c><c>   1</c></rc>
    <rc><c>Cu</c><c>   1</c></rc>
    <rc><c>Cu</c><c>   1</c></rc>
    <rc><c>Cu</c><c>   1</c></rc>
    <rc><c>Cu</c><c>   1</c></rc>
    <rc><c>Cu</c><c>   1</c></rc>
    <rc><c>Cu</c><c>   1</c></rc>
    <rc><c>Cu</c><c>   1</c></rc>
    <rc><c>Cu</c><c>   1</c></rc>
    <rc><c>Cu</c><c>   1</c></rc>
    <rc><c>Cu</c><c>   1</c></rc>
    <rc><c>Cu</c><c>   1</c></rc>
    <rc><c>Cu</c><c>   1</c></rc>
    <rc><c>Cu</c><c>   1</c></rc>
    <rc><c>Cu</c><c>   1</c></rc>
    <rc><c>Cu</c><c>   1</c></rc>
    <rc><c>Cu</c><c>   1</c></rc>
    <rc><c>Cu</c><c>   1</c></rc>
    <rc><c>Cu</c><c>   1</c></rc>
    <rc><c>Cu</c><c>   1</c></rc>
    <rc><c>Cu</c><c>   1</c></rc>
    <rc><c>Cu</c><c>   1</c></rc>
    <rc><c>Cu</c><c>   1</c></rc>
    <rc><c>Cu</c><c>   1</c></rc>
    <rc><c>Cu</c><c>   1</c></rc>
    <rc><c>Cu</c><c>   1</c></rc>
    <rc><c>Cu</c><c>   1</c></rc>
    <rc><c>Cu</c><c>   1</c></rc>
    <rc><c>Cu</c><c>   1</c></rc>
    <rc><c>Cu</c><c>   1</c></rc>
    <rc><c>Cu</c><c>   1</c></rc>
    <rc><c>Cu</c><c>   1</c></rc>
    <rc><c>Cu</c><c>   1</c></rc>
    <rc><c>Cu</c><c>   1</c></rc>
    <rc><c>Cu</c><c>   1</c></rc>
    <rc><c>Cu</c><c>   1</c></rc>
    <rc><c>Cu</c><c>   1</c></rc>
    <rc><c>Cu</c><c>   1</c></rc>
    <rc><c>Cu</c><c>   1</c></rc>
    <rc><c>Cu</c><c>   1</c></rc>
    <rc><c>Cu</c><c>   1</c></rc>
    <rc><c>Cu</c><c>   1</c></rc>
    <rc><c>Cu</c><c>   1</c></rc>
    <rc><c>Cu</c><c>   1</c></rc>
    <rc><c>Cu</c><c>   1</c></rc>
    <rc><c>Cu</c><c>   1</c></rc>
    <rc><c>Cu</c><c>   1</c></rc>
    <rc><c>Cu</c><c>   1</c></rc>
    <rc><c>Cu</c><c>   1</c></rc>
    <rc><c>Cu</c><c>   1</c></rc>
    <rc><c>Cu</c><c>   1</c></rc>
    <rc><c>Cu</c><c>   1</c></rc>
    <rc><c>Cu</c><c>   1</c></rc>
    <rc><c>Cu</c><c>   1</c></rc>
    <rc><c>Cu</c><c>   1</c></rc>
    <rc><c>Cu</c><c>   1</c></rc>
    <rc><c>Cu</c><c>   1</c></rc>
    <rc><c>Cu</c><c>   1</c></rc>
    <rc><c>Cu</c><c>   1</c></rc>
    <rc><c>Cu</c><c>   1</c></rc>
    <rc><c>Cu</c><c>   1</c></rc>
    <rc><c>Cu</c><c>   1</c></rc>
    <rc><c>O </c><c>   2</c></rc>
    <rc><c>O </c><c>   2</c></rc>
    <rc><c>O </c><c>   2</c></rc>
    <rc><c>O </c><c>   2</c></rc>
   </set>
  </array>
  <array name="atomtypes" >
   <dimension dim="1">type</dimension>
   <field type="int">atomspertype</field>
   <field type="string">element</field>
   <field>mass</field>
   <field>valence</field>
   <field type="string">pseudopotential</field>
   <set>
    <rc><c> 112</c><c>Cu</c><c>     63.54600000</c><c>     11.00000000</c><c> PAW_PBE Cu 05Jan2001                   </c></rc>
    <rc><c>   4</c><c>O </c><c>     16.00000000</c><c>      6.00000000</c><c> PAW_PBE O 08Apr2002                    </c></rc>
   </set>
  </array>
 </atominfo>
 <structure name="initialpos" >
  <crystal>
   <varray name="basis" >
    <v>      10.28518105       0.00000000       0.00000000 </v>
    <v>       5.14259052       8.90722807       0.00000000 </v>
    <v>       0.00000000       0.00000000      27.79016876 </v>
   </varray>
   <i name="volume">   2545.92553775 </i>
   <varray name="rec_basis" >
    <v>       0.09722726      -0.05613419       0.00000000 </v>
    <v>       0.00000000       0.11226837       0.00000000 </v>
    <v>       0.00000000       0.00000000       0.03598395 </v>
   </varray>
  </crystal>
  <varray name="positions" >
   <v>       0.00000000       0.00000000       0.22663990 </v>
   <v>       0.00000000       0.50000000       0.22663990 </v>
   <v>       0.50000000       0.00000000       0.22663990 </v>
   <v>       0.50000000       0.50000000       0.22663990 </v>
   <v>       0.00000000       0.25000000       0.22663990 </v>
   <v>       0.00000000       0.75000000       0.22663990 </v>
   <v>       0.50000000       0.25000000       0.22663990 </v>
   <v>       0.50000000       0.75000000       0.22663990 </v>
   <v>       0.25000000       0.00000000       0.22663990 </v>
   <v>       0.25000000       0.50000000       0.22663990 </v>
   <v>       0.75000000       0.00000000       0.22663990 </v>
   <v>       0.75000000       0.50000000       0.22663990 </v>
   <v>       0.25000000       0.25000000       0.22663990 </v>
   <v>       0.25000000       0.75000000       0.22663990 </v>
   <v>       0.75000000       0.25000000       0.22663990 </v>
   <v>       0.75000000       0.75000000       0.22663990 </v>
   <v>       0.16666666       0.16666666       0.30218653 </v>
   <v>       0.16666666       0.66666666       0.30218653 </v>
   <v>       0.66666666       0.16666666       0.30218653 </v>
   <v>       0.66666666       0.66666666       0.30218653 </v>
   <v>       0.16666666       0.41666666       0.30218653 </v>
   <v>       0.16666666       0.91666666       0.30218653 </v>
   <v>       0.66666666       0.41666666       0.30218653 </v>
   <v>       0.66666666       0.91666666       0.30218653 </v>
   <v>       0.41666666       0.16666666       0.30218653 </v>
   <v>       0.41666666       0.66666666       0.30218653 </v>
   <v>       0.91666666       0.16666666       0.30218653 </v>
   <v>       0.91666666       0.66666666       0.30218653 </v>
   <v>       0.41666666       0.41666666       0.30218653 </v>
   <v>       0.41666666       0.91666666       0.30218653 </v>
   <v>       0.91666666       0.41666666       0.30218653 </v>
   <v>       0.91666666       0.91666666       0.30218653 </v>
   <v>       0.08333333       0.08333333       0.37716320 </v>
   <v>       0.08333333       0.58333333       0.37716320 </v>
   <v>       0.58333333       0.08333333       0.37716320 </v>
   <v>       0.58333333       0.58333333       0.37716320 </v>
   <v>       0.08351614       0.33324190       0.37729758 </v>
   <v>       0.08351614       0.83324190       0.37729758 </v>
   <v>       0.58351614       0.33324190       0.37729758 </v>
   <v>       0.58351614       0.83324190       0.37729758 </v>
   <v>       0.33324190       0.08351614       0.37729758 </v>
   <v>       0.33324190       0.58351614       0.37729758 </v>
   <v>       0.83324190       0.08351614       0.37729758 </v>
   <v>       0.83324190       0.58351614       0.37729758 </v>
   <v>       0.33324190       0.33324190       0.37729758 </v>
   <v>       0.33324190       0.83324190       0.37729758 </v>
   <v>       0.83324190       0.33324190       0.37729758 </v>
   <v>       0.83324190       0.83324190       0.37729758 </v>
   <v>       0.00012997       0.00012997       0.45242342 </v>
   <v>       0.00012997       0.50012997       0.45242342 </v>
   <v>       0.50012997       0.00012997       0.45242342 </v>
   <v>       0.50012997       0.50012997       0.45242342 </v>
   <v>       0.00012997       0.24974005       0.45242342 </v>
   <v>       0.00012997       0.74974005       0.45242342 </v>
   <v>       0.50012997       0.24974005       0.45242342 </v>
   <v>       0.50012997       0.74974005       0.45242342 </v>
   <v>       0.24974005       0.00012997       0.45242342 </v>
   <v>       0.24974005       0.50012997       0.45242342 </v>
   <v>       0.74974005       0.00012997       0.45242342 </v>
   <v>       0.74974005       0.50012997       0.45242342 </v>
   <v>       0.25000000       0.25000000       0.45288750 </v>
   <v>       0.25000000       0.75000000       0.45288750 </v>
   <v>       0.75000000       0.25000000       0.45288750 </v>
   <v>       0.75000000       0.75000000       0.45288750 </v>
   <v>       0.16660598       0.16660598       0.52813907 </v>
   <v>       0.16660598       0.66660598       0.52813907 </v>
   <v>       0.66660598       0.16660598       0.52813907 </v>
   <v>       0.66660598       0.66660598       0.52813907 </v>
   <v>       0.16660598       0.41678801       0.52813907 </v>
   <v>       0.16660598       0.91678801       0.52813907 </v>
   <v>       0.66660598       0.41678801       0.52813907 </v>
   <v>       0.66660598       0.91678801       0.52813907 </v>
   <v>       0.41678801       0.16660598       0.52813907 </v>
   <v>       0.41678801       0.66660598       0.52813907 </v>
   <v>       0.91678801       0.16660598       0.52813907 </v>
   <v>       0.91678801       0.66660598       0.52813907 </v>
   <v>       0.41666666       0.41666666       0.52741939 </v>
   <v>       0.41666666       0.91666666       0.52741939 </v>
   <v>       0.91666666       0.41666666       0.52741939 </v>
   <v>       0.91666666       0.91666666       0.52741939 </v>
   <v>       0.08333333       0.08333333       0.60253339 </v>
   <v>       0.08333333       0.58333333       0.60253339 </v>
   <v>       0.58333333       0.08333333       0.60253339 </v>
   <v>       0.58333333       0.58333333       0.60253339 </v>
   <v>       0.08130935       0.33434529       0.60320464 </v>
   <v>       0.08130935       0.83434529       0.60320464 </v>
   <v>       0.58130935       0.33434529       0.60320464 </v>
   <v>       0.58130935       0.83434529       0.60320464 </v>
   <v>       0.33434529       0.08130935       0.60320464 </v>
   <v>       0.33434529       0.58130935       0.60320464 </v>
   <v>       0.83434529       0.08130935       0.60320464 </v>
   <v>       0.83434529       0.58130935       0.60320464 </v>
   <v>       0.33434529       0.33434529       0.60320464 </v>
   <v>       0.33434529       0.83434529       0.60320464 </v>
   <v>       0.83434529       0.33434529       0.60320464 </v>
   <v>       0.83434529       0.83434529       0.60320464 </v>
   <v>       0.49714648       0.49714648       0.68057248 </v>
   <v>       0.49714648       0.99714648       0.68057248 </v>
   <v>       0.99714648       0.49714648       0.68057248 </v>
   <v>       0.99714648       0.99714648       0.68057248 </v>
   <v>       0.49714648       0.25570704       0.68057248 </v>
   <v>       0.49714648       0.75570704       0.68057248 </v>
   <v>       0.99714648       0.25570704       0.68057248 </v>
   <v>       0.99714648       0.75570704       0.68057248 </v>
   <v>       0.25570704       0.49714648       0.68057248 </v>
   <v>       0.25570704       0.99714648       0.68057248 </v>
   <v>       0.75570704       0.49714648       0.68057248 </v>
   <v>       0.75570704       0.99714648       0.68057248 </v>
   <v>       0.25000000       0.25000000       0.67480871 </v>
   <v>       0.25000000       0.75000000       0.67480871 </v>
   <v>       0.75000000       0.25000000       0.67480871 </v>
   <v>       0.75000000       0.75000000       0.67480871 </v>
   <v>       0.08195833       0.08333333       0.71992999 </v>
   <v>       0.08333333       0.58333333       0.72043888 </v>
   <v>       0.58333333       0.08333333       0.72043888 </v>
   <v>       0.58333333       0.58333333       0.72043888 </v>
  </varray>
 </structure>
 <calculation>
  <scstep>
   <time name="dav">  168.95  169.24</time>
   <time name="total">  169.53  169.83</time>
   <energy>
    <i name="alphaZ">   6463.29446255 </i>
    <i name="ewald"> 664629.72302078 </i>
    <i name="hartreedc">-815384.18057958 </i>
    <i name="XCdc">   5009.46987286 </i>
    <i name="pawpsdc"> 122173.85035501 </i>
    <i name="pawaedc">-138312.01710912 </i>
    <i name="eentropy">     -0.02907660 </i>
    <i name="bandstr">   8852.72098805 </i>
    <i name="atom"> 157518.83071590 </i>
    <i name="e_fr_energy">  10951.66264985 </i>
    <i name="e_wo_entrp">  10951.69172645 </i>
    <i name="e_0_energy">  10951.67718815 </i>
   </energy>
  </scstep>
  <scstep>
   <time name="dav">  162.58  162.85</time>
   <time name="total">  162.61  162.88</time>
   <energy>
    <i name="e_fr_energy">   1074.32050620 </i>
    <i name="e_wo_entrp">   1074.36405112 </i>
    <i name="e_0_energy">   1074.34227866 </i>
   </energy>
  </scstep>
  <scstep>
   <time name="dav">  165.74  166.00</time>
   <time name="total">  165.77  166.02</time>
   <energy>
    <i name="e_fr_energy">   -373.60256814 </i>
    <i name="e_wo_entrp">   -373.53707982 </i>
    <i name="e_0_energy">   -373.56982398 </i>
   </energy>
  </scstep>
  <scstep>
   <time name="dav">  171.41  171.67</time>
   <time name="total">  171.44  171.70</time>
   <energy>
    <i name="e_fr_energy">   -524.78003941 </i>
    <i name="e_wo_entrp">   -524.71663684 </i>
    <i name="e_0_energy">   -524.74833813 </i>
   </energy>
  </scstep>
  <scstep>
   <time name="dav">  160.10  160.36</time>
   <time name="total">  164.72  165.00</time>
   <energy>
    <i name="e_fr_energy">   -530.84743943 </i>
    <i name="e_wo_entrp">   -530.78413377 </i>
    <i name="e_0_energy">   -530.81578660 </i>
   </energy>
  </scstep>
  <scstep>
   <time name="dav">  172.51  172.72</time>
   <time name="total">  177.62  177.85</time>
   <energy>
    <i name="e_fr_energy">   -477.82900986 </i>
    <i name="e_wo_entrp">   -477.77344409 </i>
    <i name="e_0_energy">   -477.80122698 </i>
   </energy>
  </scstep>
  <scstep>
   <time name="dav">  182.63  182.92</time>
   <time name="total">  187.66  187.95</time>
   <energy>
    <i name="e_fr_energy">   -508.77282773 </i>
    <i name="e_wo_entrp">   -508.66039461 </i>
    <i name="e_0_energy">   -508.71661117 </i>
   </energy>
  </scstep>
  <scstep>
   <time name="dav">  210.33  210.75</time>
   <time name="total">  215.38  260.33</time>
   <energy>
    <i name="e_fr_energy">   -444.07187710 </i>
    <i name="e_wo_entrp">   -443.99011916 </i>
    <i name="e_0_energy">   -444.03099813 </i>
   </energy>
  </scstep>
  <scstep>
   <time name="dav">  205.36  205.65</time>
   <time name="total">  210.39  211.51</time>
   <energy>
    <i name="e_fr_energy">   -428.35886290 </i>
    <i name="e_wo_entrp">   -428.31890880 </i>
    <i name="e_0_energy">   -428.33888585 </i>
   </energy>
  </scstep>
  <scstep>
   <time name="dav">  177.30  177.57</time>
   <time name="total">  182.50  182.86</time>
   <energy>
    <i name="e_fr_energy">   -429.23140209 </i>
    <i name="e_wo_entrp">   -429.17779001 </i>
    <i name="e_0_energy">   -429.20459605 </i>
   </energy>
  </scstep>
  <scstep>
   <time name="dav">  172.14  172.37</time>
   <time name="total">  177.19  177.43</time>
   <energy>
    <i name="e_fr_energy">   -427.89517615 </i>
    <i name="e_wo_entrp">   -427.82820662 </i>
    <i name="e_0_energy">   -427.86169139 </i>
   </energy>
  </scstep>
  <scstep>
   <time name="dav">  183.12  183.40</time>
   <time name="total">  188.14  188.43</time>
   <energy>
    <i name="e_fr_energy">   -427.70468559 </i>
    <i name="e_wo_entrp">   -427.65003363 </i>
    <i name="e_0_energy">   -427.67735961 </i>
   </energy>
  </scstep>
  <scstep>
   <time name="dav">  166.40  166.62</time>
   <time name="total">  171.43  171.67</time>
   <energy>
    <i name="e_fr_energy">   -427.64441408 </i>
    <i name="e_wo_entrp">   -427.58992094 </i>
    <i name="e_0_energy">   -427.61716751 </i>
   </energy>
  </scstep>
  <scstep>
   <time name="dav">  182.11  182.47</time>
   <time name="total">  187.10  187.47</time>
   <energy>
    <i name="e_fr_energy">   -427.54097662 </i>
    <i name="e_wo_entrp">   -427.49167360 </i>
    <i name="e_0_energy">   -427.51632511 </i>
   </energy>
  </scstep>
  <scstep>
   <time name="dav">  175.75  176.00</time>
   <time name="total">  180.73  180.98</time>
   <energy>
    <i name="e_fr_energy">   -427.60361868 </i>
    <i name="e_wo_entrp">   -427.55492058 </i>
    <i name="e_0_energy">   -427.57926963 </i>
   </energy>
  </scstep>
  <scstep>
   <time name="dav">  167.57  167.80</time>
   <time name="total">  172.56  172.80</time>
   <energy>
    <i name="e_fr_energy">   -427.50898987 </i>
    <i name="e_wo_entrp">   -427.45925268 </i>
    <i name="e_0_energy">   -427.48412127 </i>
   </energy>
  </scstep>
  <scstep>
   <time name="dav">  177.77  178.13</time>
   <time name="total">  182.77  183.14</time>
   <energy>
    <i name="e_fr_energy">   -427.47724125 </i>
    <i name="e_wo_entrp">   -427.42598111 </i>
    <i name="e_0_energy">   -427.45161118 </i>
   </energy>
  </scstep>
  <scstep>
   <time name="dav">  189.86  190.11</time>
   <time name="total">  194.84  195.10</time>
   <energy>
    <i name="e_fr_energy">   -427.46442879 </i>
    <i name="e_wo_entrp">   -427.41190581 </i>
    <i name="e_0_energy">   -427.43816730 </i>
   </energy>
  </scstep>
  <scstep>
   <time name="dav">  175.57  175.85</time>
   <time name="total">  180.54  180.82</time>
   <energy>
    <i name="e_fr_energy">   -427.46433826 </i>
    <i name="e_wo_entrp">   -427.41125502 </i>
    <i name="e_0_energy">   -427.43779664 </i>
   </energy>
  </scstep>
  <scstep>
   <time name="dav">  156.29  156.51</time>
   <time name="total">  161.41  161.73</time>
   <energy>
    <i name="e_fr_energy">   -427.46489502 </i>
    <i name="e_wo_entrp">   -427.41171324 </i>
    <i name="e_0_energy">   -427.43830413 </i>
   </energy>
  </scstep>
  <scstep>
   <time name="dav">  157.74  157.98</time>
   <time name="total">  162.78  163.02</time>
   <energy>
    <i name="e_fr_energy">   -427.46496585 </i>
    <i name="e_wo_entrp">   -427.41153091 </i>
    <i name="e_0_energy">   -427.43824838 </i>
   </energy>
  </scstep>
  <scstep>
   <time name="dav">  167.21  167.51</time>
   <time name="total">  172.19  172.49</time>
   <energy>
    <i name="e_fr_energy">   -427.46528447 </i>
    <i name="e_wo_entrp">   -427.41197306 </i>
    <i name="e_0_energy">   -427.43862877 </i>
   </energy>
  </scstep>
  <scstep>
   <time name="dav">  162.14  162.40</time>
   <time name="total">  167.11  167.38</time>
   <energy>
    <i name="e_fr_energy">   -427.46528811 </i>
    <i name="e_wo_entrp">   -427.41207402 </i>
    <i name="e_0_energy">   -427.43868107 </i>
   </energy>
  </scstep>
  <scstep>
   <time name="dav">  164.23  164.55</time>
   <time name="total">  171.57  171.91</time>
   <energy>
    <i name="e_fr_energy">   -427.46546949 </i>
    <i name="e_wo_entrp">   -427.41222358 </i>
    <i name="e_0_energy">   -427.43884653 </i>
   </energy>
  </scstep>
  <scstep>
   <time name="dav">  175.27  175.53</time>
   <time name="total">  180.48  180.75</time>
   <energy>
    <i name="e_fr_energy">   -427.46565811 </i>
    <i name="e_wo_entrp">   -427.41244673 </i>
    <i name="e_0_energy">   -427.43905242 </i>
   </energy>
  </scstep>
  <scstep>
   <time name="dav">  169.14  169.37</time>
   <time name="total">  174.13  174.37</time>
   <energy>
    <i name="e_fr_energy">   -427.46586737 </i>
    <i name="e_wo_entrp">   -427.41264516 </i>
    <i name="e_0_energy">   -427.43925626 </i>
   </energy>
  </scstep>
  <scstep>
   <time name="dav">  160.54  160.79</time>
   <time name="total">  165.59  165.86</time>
   <energy>
    <i name="e_fr_energy">   -427.46610915 </i>
    <i name="e_wo_entrp">   -427.41289095 </i>
    <i name="e_0_energy">   -427.43950005 </i>
   </energy>
  </scstep>
  <scstep>
   <time name="dav">  160.75  161.15</time>
   <time name="total">  165.75  166.16</time>
   <energy>
    <i name="e_fr_energy">   -427.46625617 </i>
    <i name="e_wo_entrp">   -427.41305381 </i>
    <i name="e_0_energy">   -427.43965499 </i>
   </energy>
  </scstep>
  <scstep>
   <time name="dav">  154.59  154.84</time>
   <time name="total">  159.59  159.85</time>
   <energy>
    <i name="e_fr_energy">   -427.46638852 </i>
    <i name="e_wo_entrp">   -427.41320353 </i>
    <i name="e_0_energy">   -427.43979603 </i>
   </energy>
  </scstep>
  <scstep>
   <time name="dav">  155.39  155.61</time>
   <time name="total">  162.21  162.47</time>
   <energy>
    <i name="e_fr_energy">   -427.46649095 </i>
    <i name="e_wo_entrp">   -427.41330834 </i>
    <i name="e_0_energy">   -427.43989964 </i>
   </energy>
  </scstep>
  <scstep>
   <time name="dav">  152.99  153.31</time>
   <time name="total">  157.98  158.30</time>
   <energy>
    <i name="e_fr_energy">   -427.46660419 </i>
    <i name="e_wo_entrp">   -427.41340548 </i>
    <i name="e_0_energy">   -427.44000484 </i>
   </energy>
  </scstep>
  <scstep>
   <time name="dav">  137.70  137.90</time>
   <time name="total">  142.70  142.90</time>
   <energy>
    <i name="e_fr_energy">   -427.46665992 </i>
    <i name="e_wo_entrp">   -427.41344984 </i>
    <i name="e_0_energy">   -427.44005488 </i>
   </energy>
  </scstep>
  <scstep>
   <time name="dav">  125.97  126.14</time>
   <time name="total">  130.96  131.13</time>
   <energy>
    <i name="e_fr_energy">   -427.46667969 </i>
    <i name="e_wo_entrp">   -427.41347056 </i>
    <i name="e_0_energy">   -427.44007512 </i>
   </energy>
  </scstep>
  <scstep>
   <time name="dav">  163.31  164.12</time>
   <time name="total">  168.31  169.13</time>
   <energy>
    <i name="e_fr_energy">   -427.46671273 </i>
    <i name="e_wo_entrp">   -427.41351084 </i>
    <i name="e_0_energy">   -427.44011179 </i>
   </energy>
  </scstep>
  <scstep>
   <time name="dav">  118.23  118.48</time>
   <time name="total">  123.30  123.55</time>
   <energy>
    <i name="e_fr_energy">   -427.46672806 </i>
    <i name="e_wo_entrp">   -427.41352783 </i>
    <i name="e_0_energy">   -427.44012795 </i>
   </energy>
  </scstep>
  <scstep>
   <time name="dav">  115.08  115.24</time>
   <time name="total">  120.08  120.25</time>
   <energy>
    <i name="e_fr_energy">   -427.46673427 </i>
    <i name="e_wo_entrp">   -427.41353512 </i>
    <i name="e_0_energy">   -427.44013469 </i>
   </energy>
  </scstep>
  <scstep>
   <time name="dav">  114.89  115.06</time>
   <time name="total">  119.88  120.05</time>
   <energy>
    <i name="e_fr_energy">   -427.46674178 </i>
    <i name="e_wo_entrp">   -427.41354205 </i>
    <i name="e_0_energy">   -427.44014191 </i>
   </energy>
  </scstep>
  <scstep>
   <time name="dav">  111.05  111.21</time>
   <time name="total">  118.04  118.20</time>
   <energy>
    <i name="e_fr_energy">   -427.46674442 </i>
    <i name="e_wo_entrp">   -427.41354344 </i>
    <i name="e_0_energy">   -427.44014393 </i>
   </energy>
  </scstep>
  <scstep>
   <time name="dav">  109.81  110.00</time>
   <time name="total">  114.81  115.00</time>
   <energy>
    <i name="e_fr_energy">   -427.46674618 </i>
    <i name="e_wo_entrp">   -427.41354444 </i>
    <i name="e_0_energy">   -427.44014531 </i>
   </energy>
  </scstep>
  <scstep>
   <time name="dav">  111.24  111.42</time>
   <time name="total">  111.74  111.91</time>
   <energy>
    <i name="alphaZ">   6463.29446255 </i>
    <i name="ewald"> 664629.72302078 </i>
    <i name="hartreedc">-813422.62163994 </i>
    <i name="XCdc">   4896.86885583 </i>
    <i name="pawpsdc"> 123762.67074520 </i>
    <i name="pawaedc">-139979.82253476 </i>
    <i name="eentropy">     -0.05320157 </i>
    <i name="bandstr">  -4296.35717109 </i>
    <i name="atom"> 157518.83071590 </i>
    <i name="e_fr_energy">   -427.46674710 </i>
    <i name="e_wo_entrp">   -427.41354553 </i>
    <i name="e_0_energy">   -427.44014632 </i>
   </energy>
  </scstep>
  <structure>
   <crystal>
    <varray name="basis" >
     <v>      10.28518105       0.00000000       0.00000000 </v>
     <v>       5.14259052       8.90722807       0.00000000 </v>
     <v>       0.00000000       0.00000000      27.79016876 </v>
    </varray>
    <i name="volume">   2545.92553775 </i>
    <varray name="rec_basis" >
     <v>       0.09722726      -0.05613419       0.00000000 </v>
     <v>       0.00000000       0.11226837       0.00000000 </v>
     <v>       0.00000000       0.00000000       0.03598395 </v>
    </varray>
   </crystal>
   <varray name="positions" >
    <v>       0.00000000       0.00000000       0.22663990 </v>
    <v>       0.00000000       0.50000000       0.22663990 </v>
    <v>       0.50000000       0.00000000       0.22663990 </v>
    <v>       0.50000000       0.50000000       0.22663990 </v>
    <v>       0.00000000       0.25000000       0.22663990 </v>
    <v>       0.00000000       0.75000000       0.22663990 </v>
    <v>       0.50000000       0.25000000       0.22663990 </v>
    <v>       0.50000000       0.75000000       0.22663990 </v>
    <v>       0.25000000       0.00000000       0.22663990 </v>
    <v>       0.25000000       0.50000000       0.22663990 </v>
    <v>       0.75000000       0.00000000       0.22663990 </v>
    <v>       0.75000000       0.50000000       0.22663990 </v>
    <v>       0.25000000       0.25000000       0.22663990 </v>
    <v>       0.25000000       0.75000000       0.22663990 </v>
    <v>       0.75000000       0.25000000       0.22663990 </v>
    <v>       0.75000000       0.75000000       0.22663990 </v>
    <v>       0.16666666       0.16666666       0.30218653 </v>
    <v>       0.16666666       0.66666666       0.30218653 </v>
    <v>       0.66666666       0.16666666       0.30218653 </v>
    <v>       0.66666666       0.66666666       0.30218653 </v>
    <v>       0.16666666       0.41666666       0.30218653 </v>
    <v>       0.16666666       0.91666666       0.30218653 </v>
    <v>       0.66666666       0.41666666       0.30218653 </v>
    <v>       0.66666666       0.91666666       0.30218653 </v>
    <v>       0.41666666       0.16666666       0.30218653 </v>
    <v>       0.41666666       0.66666666       0.30218653 </v>
    <v>       0.91666666       0.16666666       0.30218653 </v>
    <v>       0.91666666       0.66666666       0.30218653 </v>
    <v>       0.41666666       0.41666666       0.30218653 </v>
    <v>       0.41666666       0.91666666       0.30218653 </v>
    <v>       0.91666666       0.41666666       0.30218653 </v>
    <v>       0.91666666       0.91666666       0.30218653 </v>
    <v>       0.08333333       0.08333333       0.37716320 </v>
    <v>       0.08333333       0.58333333       0.37716320 </v>
    <v>       0.58333333       0.08333333       0.37716320 </v>
    <v>       0.58333333       0.58333333       0.37716320 </v>
    <v>       0.08351614       0.33324190       0.37729758 </v>
    <v>       0.08351614       0.83324190       0.37729758 </v>
    <v>       0.58351614       0.33324190       0.37729758 </v>
    <v>       0.58351614       0.83324190       0.37729758 </v>
    <v>       0.33324190       0.08351614       0.37729758 </v>
    <v>       0.33324190       0.58351614       0.37729758 </v>
    <v>       0.83324190       0.08351614       0.37729758 </v>
    <v>       0.83324190       0.58351614       0.37729758 </v>
    <v>       0.33324190       0.33324190       0.37729758 </v>
    <v>       0.33324190       0.83324190       0.37729758 </v>
    <v>       0.83324190       0.33324190       0.37729758 </v>
    <v>       0.83324190       0.83324190       0.37729758 </v>
    <v>       0.00012997       0.00012997       0.45242342 </v>
    <v>       0.00012997       0.50012997       0.45242342 </v>
    <v>       0.50012997       0.00012997       0.45242342 </v>
    <v>       0.50012997       0.50012997       0.45242342 </v>
    <v>       0.00012997       0.24974005       0.45242342 </v>
    <v>       0.00012997       0.74974005       0.45242342 </v>
    <v>       0.50012997       0.24974005       0.45242342 </v>
    <v>       0.50012997       0.74974005       0.45242342 </v>
    <v>       0.24974005       0.00012997       0.45242342 </v>
    <v>       0.24974005       0.50012997       0.45242342 </v>
    <v>       0.74974005       0.00012997       0.45242342 </v>
    <v>       0.74974005       0.50012997       0.45242342 </v>
    <v>       0.25000000       0.25000000       0.45288750 </v>
    <v>       0.25000000       0.75000000       0.45288750 </v>
    <v>       0.75000000       0.25000000       0.45288750 </v>
    <v>       0.75000000       0.75000000       0.45288750 </v>
    <v>       0.16660598       0.16660598       0.52813907 </v>
    <v>       0.16660598       0.66660598       0.52813907 </v>
    <v>       0.66660598       0.16660598       0.52813907 </v>
    <v>       0.66660598       0.66660598       0.52813907 </v>
    <v>       0.16660598       0.41678801       0.52813907 </v>
    <v>       0.16660598       0.91678801       0.52813907 </v>
    <v>       0.66660598       0.41678801       0.52813907 </v>
    <v>       0.66660598       0.91678801       0.52813907 </v>
    <v>       0.41678801       0.16660598       0.52813907 </v>
    <v>       0.41678801       0.66660598       0.52813907 </v>
    <v>       0.91678801       0.16660598       0.52813907 </v>
    <v>       0.91678801       0.66660598       0.52813907 </v>
    <v>       0.41666666       0.41666666       0.52741939 </v>
    <v>       0.41666666       0.91666666       0.52741939 </v>
    <v>       0.91666666       0.41666666       0.52741939 </v>
    <v>       0.91666666       0.91666666       0.52741939 </v>
    <v>       0.08333333       0.08333333       0.60253339 </v>
    <v>       0.08333333       0.58333333       0.60253339 </v>
    <v>       0.58333333       0.08333333       0.60253339 </v>
    <v>       0.58333333       0.58333333       0.60253339 </v>
    <v>       0.08130935       0.33434529       0.60320464 </v>
    <v>       0.08130935       0.83434529       0.60320464 </v>
    <v>       0.58130935       0.33434529       0.60320464 </v>
    <v>       0.58130935       0.83434529       0.60320464 </v>
    <v>       0.33434529       0.08130935       0.60320464 </v>
    <v>       0.33434529       0.58130935       0.60320464 </v>
    <v>       0.83434529       0.08130935       0.60320464 </v>
    <v>       0.83434529       0.58130935       0.60320464 </v>
    <v>       0.33434529       0.33434529       0.60320464 </v>
    <v>       0.33434529       0.83434529       0.60320464 </v>
    <v>       0.83434529       0.33434529       0.60320464 </v>
    <v>       0.83434529       0.83434529       0.60320464 </v>
    <v>       0.49714648       0.49714648       0.68057248 </v>
    <v>       0.49714648       0.99714648       0.68057248 </v>
    <v>       0.99714648       0.49714648       0.68057248 </v>
    <v>       0.99714648       0.99714648       0.68057248 </v>
    <v>       0.49714648       0.25570704       0.68057248 </v>
    <v>       0.49714648       0.75570704       0.68057248 </v>
    <v>       0.99714648       0.25570704       0.68057248 </v>
    <v>       0.99714648       0.75570704       0.68057248 </v>
    <v>       0.25570704       0.49714648       0.68057248 </v>
    <v>       0.25570704       0.99714648       0.68057248 </v>
    <v>       0.75570704       0.49714648       0.68057248 </v>
    <v>       0.75570704       0.99714648       0.68057248 </v>
    <v>       0.25000000       0.25000000       0.67480871 </v>
    <v>       0.25000000       0.75000000       0.67480871 </v>
    <v>       0.75000000       0.25000000       0.67480871 </v>
    <v>       0.75000000       0.75000000       0.67480871 </v>
    <v>       0.08195833       0.08333333       0.71992999 </v>
    <v>       0.08333333       0.58333333       0.72043888 </v>
    <v>       0.58333333       0.08333333       0.72043888 </v>
    <v>       0.58333333       0.58333333       0.72043888 </v>
   </varray>
  </structure>
  <varray name="forces" >
   <v>       0.00784610       0.00464316       0.07158330 </v>
   <v>       0.00794002       0.00469656       0.07171757 </v>
   <v>       0.00794676       0.00444034       0.07167010 </v>
   <v>       0.00795571       0.00461598       0.07174884 </v>
   <v>      -0.00019842      -0.00906023       0.07172407 </v>
   <v>      -0.00000052      -0.00922628       0.07178722 </v>
   <v>      -0.00004073      -0.00918468       0.07164722 </v>
   <v>       0.00006674      -0.00898230       0.07169263 </v>
   <v>      -0.00784767       0.00441499       0.07186434 </v>
   <v>      -0.00795361       0.00456771       0.07154863 </v>
   <v>      -0.00785194       0.00460778       0.07181230 </v>
   <v>      -0.00779320       0.00446605       0.07176513 </v>
   <v>       0.00004920       0.00009412       0.08638810 </v>
   <v>      -0.00011265      -0.00001255       0.08647866 </v>
   <v>       0.00002334      -0.00007780       0.08657324 </v>
   <v>      -0.00008856      -0.00000071       0.08634310 </v>
   <v>       0.00702629       0.00406613      -0.07995570 </v>
   <v>       0.00708691       0.00429818      -0.07988705 </v>
   <v>       0.00713107       0.00400368      -0.07988402 </v>
   <v>       0.00705729       0.00406238      -0.08007896 </v>
   <v>      -0.00010867      -0.00820294      -0.07988987 </v>
   <v>      -0.00001644      -0.00815444      -0.08006544 </v>
   <v>      -0.00006079      -0.00798279      -0.07988123 </v>
   <v>       0.00002196      -0.00800649      -0.08001153 </v>
   <v>      -0.00691058       0.00404276      -0.07989003 </v>
   <v>      -0.00690454       0.00383089      -0.07988433 </v>
   <v>      -0.00709633       0.00408757      -0.08017269 </v>
   <v>      -0.00681113       0.00394558      -0.07994821 </v>
   <v>      -0.00003575       0.00000077      -0.05928648 </v>
   <v>      -0.00021777       0.00005852      -0.05936108 </v>
   <v>      -0.00011249      -0.00013977      -0.05924938 </v>
   <v>       0.00002358       0.00007638      -0.05913375 </v>
   <v>      -0.00017291      -0.00000137      -0.00011666 </v>
   <v>       0.00006547       0.00005381      -0.00007388 </v>
   <v>       0.00015833      -0.00001599       0.00008911 </v>
   <v>       0.00009380      -0.00003702       0.00025194 </v>
   <v>       0.00011723      -0.00004801      -0.00014805 </v>
   <v>       0.00017516      -0.00012970      -0.00011269 </v>
   <v>      -0.00005729      -0.00000453      -0.00018312 </v>
   <v>      -0.00004707      -0.00004843       0.00001350 </v>
   <v>      -0.00006149      -0.00001030      -0.00019790 </v>
   <v>      -0.00006995       0.00002046      -0.00006894 </v>
   <v>       0.00003189       0.00017024      -0.00012573 </v>
   <v>      -0.00013378       0.00004984       0.00007947 </v>
   <v>      -0.00009657      -0.00001257       0.00003404 </v>
   <v>      -0.00000813       0.00013831      -0.00021368 </v>
   <v>       0.00002723      -0.00010201      -0.00017684 </v>
   <v>      -0.00013602       0.00000038       0.00014650 </v>
   <v>      -0.00000671      -0.00008975      -0.00007511 </v>
   <v>       0.00000455       0.00005970      -0.00005128 </v>
   <v>      -0.00009727      -0.00020125       0.00005257 </v>
   <v>       0.00000060      -0.00002706      -0.00003880 </v>
   <v>       0.00015183      -0.00002976      -0.00017406 </v>
   <v>       0.00018270      -0.00015389      -0.00003073 </v>
   <v>       0.00004190      -0.00007065       0.00018448 </v>
   <v>      -0.00003071       0.00028616       0.00017937 </v>
   <v>      -0.00005213       0.00011943      -0.00025882 </v>
   <v>      -0.00012587       0.00009357       0.00040806 </v>
   <v>       0.00011817       0.00031575       0.00010223 </v>
   <v>       0.00001530      -0.00030520       0.00020857 </v>
   <v>      -0.00000224      -0.00005330       0.00032574 </v>
   <v>       0.00009412      -0.00005065       0.00023348 </v>
   <v>      -0.00008820       0.00010749       0.00013961 </v>
   <v>      -0.00008982       0.00000053      -0.00007378 </v>
   <v>       0.00007429       0.00007087       0.00043337 </v>
   <v>       0.00014042      -0.00012404      -0.00043919 </v>
   <v>      -0.00014865       0.00024976      -0.00056426 </v>
   <v>      -0.00009790      -0.00006120      -0.00064373 </v>
   <v>       0.00011771       0.00004316      -0.00004630 </v>
   <v>      -0.00004475       0.00009146       0.00033429 </v>
   <v>      -0.00034621       0.00017162      -0.00030707 </v>
   <v>       0.00000661       0.00015763      -0.00025337 </v>
   <v>       0.00026790       0.00004778       0.00020726 </v>
   <v>       0.00009113      -0.00038834       0.00007178 </v>
   <v>       0.00023306      -0.00015832       0.00022730 </v>
   <v>       0.00017642      -0.00009892       0.00013217 </v>
   <v>      -0.00000960       0.00000032       0.00006277 </v>
   <v>      -0.00026050       0.00017783       0.00053549 </v>
   <v>       0.00005446       0.00003984       0.00028927 </v>
   <v>      -0.00033703      -0.00022997       0.00004436 </v>
   <v>       0.00042681      -0.00000243      -0.00870283 </v>
   <v>       0.00037079       0.00012765      -0.00040275 </v>
   <v>       0.00059175       0.00008259      -0.00015135 </v>
   <v>       0.00023092      -0.00020801       0.00009032 </v>
   <v>       0.00044341       0.00013094      -0.00041822 </v>
   <v>      -0.00092352      -0.00087254      -0.00241551 </v>
   <v>       0.00076991      -0.00073512       0.00023702 </v>
   <v>       0.00081219      -0.00063310      -0.00089460 </v>
   <v>       0.00032244       0.00123465      -0.00010550 </v>
   <v>      -0.00049406       0.00018178      -0.00046801 </v>
   <v>      -0.00204499      -0.00011444      -0.00406840 </v>
   <v>      -0.00027811       0.00030738      -0.00041426 </v>
   <v>       0.00047855       0.00055626      -0.00114954 </v>
   <v>      -0.00066708      -0.00174344      -0.00171104 </v>
   <v>      -0.00168562       0.00135510      -0.00367631 </v>
   <v>       0.00030974       0.00033586       0.00009136 </v>
   <v>      -0.00030026      -0.00058279      -0.00156212 </v>
   <v>      -0.00406452       0.00048422       0.00055892 </v>
   <v>      -0.00168120      -0.00304097      -0.00052143 </v>
   <v>      -0.12220592      -0.07517947      -0.09132383 </v>
   <v>       0.00069878       0.00020849      -0.00151349 </v>
   <v>      -0.00056511       0.00144066       0.00054201 </v>
   <v>       0.00731605       0.07441227      -0.04846802 </v>
   <v>      -0.00079834       0.00083327      -0.00163144 </v>
   <v>       0.00006854       0.00035808      -0.00145666 </v>
   <v>       0.01025664      -0.00206801      -0.00946867 </v>
   <v>       0.00043830       0.00209068      -0.00051758 </v>
   <v>      -0.00220809      -0.00188260      -0.00161100 </v>
   <v>       0.00159031       0.00042273      -0.00231883 </v>
   <v>       0.00085827      -0.00395809      -0.00252175 </v>
   <v>      -0.00523090       0.00351528      -0.00265186 </v>
   <v>       0.00017609       0.00000165      -0.00069844 </v>
   <v>       0.11484653       0.00290172       0.17126892 </v>
   <v>       0.00013575       0.00076298       0.00236019 </v>
   <v>       0.00144693      -0.00025701       0.00262830 </v>
   <v>       0.00062641      -0.00046845       0.00288893 </v>
  </varray>
  <varray name="stress" >
   <v>      -1.95153746       0.06310411       0.08306619 </v>
   <v>       0.06310414      -1.95201907       0.00205444 </v>
   <v>       0.08306620       0.00205445      -2.03933480 </v>
  </varray>
  <energy>
   <i name="e_fr_energy">   -427.46674710 </i>
   <i name="e_wo_entrp">   -427.44014632 </i>
   <i name="e_0_energy">     -0.05320157 </i>
  </energy>
  <time name="totalsc"> 6870.24 6927.29</time>
  <eigenvalues>
   <array>
    <dimension dim="1">band</dimension>
    <dimension dim="2">kpoint</dimension>
    <dimension dim="3">spin</dimension>
    <field>eigene</field>
    <field>occ</field>
    <set>
     <set comment="spin 1">
      <set comment="kpoint 1">
       <r>  -18.6667    1.0000 </r>
       <r>  -18.6012    1.0000 </r>
       <r>  -18.5920    1.0000 </r>
       <r>  -18.5920    1.0000 </r>
       <r>   -9.4505    1.0000 </r>
       <r>   -8.9582    1.0000 </r>
       <r>   -8.1715    1.0000 </r>
       <r>   -7.5973    1.0000 </r>
       <r>   -7.5971    1.0000 </r>
       <r>   -7.5967    1.0000 </r>
       <r>   -7.5748    1.0000 </r>
       <r>   -7.5747    1.0000 </r>
       <r>   -7.5747    1.0000 </r>
       <r>   -7.2188    1.0000 </r>
       <r>   -7.2182    1.0000 </r>
       <r>   -7.2169    1.0000 </r>
       <r>   -7.1976    1.0000 </r>
       <r>   -7.1434    1.0000 </r>
       <r>   -7.1430    1.0000 </r>
       <r>   -7.1430    1.0000 </r>
       <r>   -6.6287    1.0000 </r>
       <r>   -6.6276    1.0000 </r>
       <r>   -6.6246    1.0000 </r>
       <r>   -6.4839    1.0000 </r>
       <r>   -6.4829    1.0000 </r>
       <r>   -6.4829    1.0000 </r>
       <r>   -6.2498    1.0000 </r>
       <r>   -5.9536    1.0000 </r>
       <r>   -5.9523    1.0000 </r>
       <r>   -5.9460    1.0000 </r>
       <r>   -5.7426    1.0000 </r>
       <r>   -5.7395    1.0000 </r>
       <r>   -5.7394    1.0000 </r>
       <r>   -5.6691    1.0000 </r>
       <r>   -5.6391    1.0000 </r>
       <r>   -5.6381    1.0000 </r>
       <r>   -5.4377    1.0000 </r>
       <r>   -5.4367    1.0000 </r>
       <r>   -5.4304    1.0000 </r>
       <r>   -5.4083    1.0000 </r>
       <r>   -5.3451    1.0000 </r>
       <r>   -5.3445    1.0000 </r>
       <r>   -5.3398    1.0000 </r>
       <r>   -5.3223    1.0000 </r>
       <r>   -5.2811    1.0000 </r>
       <r>   -5.2811    1.0000 </r>
       <r>   -5.2264    1.0000 </r>
       <r>   -5.2124    1.0000 </r>
       <r>   -5.2068    1.0000 </r>
       <r>   -5.2066    1.0000 </r>
       <r>   -5.1316    1.0000 </r>
       <r>   -5.1316    1.0000 </r>
       <r>   -5.1210    1.0000 </r>
       <r>   -5.0538    1.0000 </r>
       <r>   -5.0318    1.0000 </r>
       <r>   -5.0317    1.0000 </r>
       <r>   -5.0018    1.0000 </r>
       <r>   -5.0017    1.0000 </r>
       <r>   -5.0015    1.0000 </r>
       <r>   -4.9754    1.0000 </r>
       <r>   -4.9753    1.0000 </r>
       <r>   -4.9752    1.0000 </r>
       <r>   -4.9601    1.0000 </r>
       <r>   -4.9601    1.0000 </r>
       <r>   -4.9550    1.0000 </r>
       <r>   -4.9548    1.0000 </r>
       <r>   -4.9544    1.0000 </r>
       <r>   -4.9336    1.0000 </r>
       <r>   -4.8804    1.0000 </r>
       <r>   -4.8803    1.0000 </r>
       <r>   -4.8801    1.0000 </r>
       <r>   -4.8519    1.0000 </r>
       <r>   -4.8515    1.0000 </r>
       <r>   -4.8514    1.0000 </r>
       <r>   -4.8382    1.0000 </r>
       <r>   -4.8226    1.0000 </r>
       <r>   -4.8225    1.0000 </r>
       <r>   -4.8127    1.0000 </r>
       <r>   -4.8103    1.0000 </r>
       <r>   -4.8102    1.0000 </r>
       <r>   -4.7471    1.0000 </r>
       <r>   -4.7469    1.0000 </r>
       <r>   -4.7468    1.0000 </r>
       <r>   -4.7043    1.0000 </r>
       <r>   -4.7043    1.0000 </r>
       <r>   -4.7042    1.0000 </r>
       <r>   -4.7004    1.0000 </r>
       <r>   -4.6918    1.0000 </r>
       <r>   -4.6918    1.0000 </r>
       <r>   -4.6197    1.0000 </r>
       <r>   -4.6194    1.0000 </r>
       <r>   -4.6192    1.0000 </r>
       <r>   -4.5841    1.0000 </r>
       <r>   -4.5839    1.0000 </r>
       <r>   -4.5837    1.0000 </r>
       <r>   -4.5796    1.0000 </r>
       <r>   -4.5757    1.0000 </r>
       <r>   -4.5756    1.0000 </r>
       <r>   -4.5432    1.0000 </r>
       <r>   -4.5372    1.0000 </r>
       <r>   -4.5369    1.0000 </r>
       <r>   -4.5363    1.0000 </r>
       <r>   -4.5361    1.0000 </r>
       <r>   -4.5361    1.0000 </r>
       <r>   -4.5257    1.0000 </r>
       <r>   -4.5256    1.0000 </r>
       <r>   -4.5254    1.0000 </r>
       <r>   -4.5015    1.0000 </r>
       <r>   -4.5014    1.0000 </r>
       <r>   -4.5013    1.0000 </r>
       <r>   -4.4582    1.0000 </r>
       <r>   -4.4582    1.0000 </r>
       <r>   -4.4580    1.0000 </r>
       <r>   -4.4520    1.0000 </r>
       <r>   -4.4520    1.0000 </r>
       <r>   -4.4520    1.0000 </r>
       <r>   -4.4450    1.0000 </r>
       <r>   -4.4450    1.0000 </r>
       <r>   -4.4444    1.0000 </r>
       <r>   -4.4085    1.0000 </r>
       <r>   -4.4058    1.0000 </r>
       <r>   -4.4053    1.0000 </r>
       <r>   -4.3890    1.0000 </r>
       <r>   -4.3874    1.0000 </r>
       <r>   -4.3504    1.0000 </r>
       <r>   -4.3487    1.0000 </r>
       <r>   -4.3481    1.0000 </r>
       <r>   -4.3353    1.0000 </r>
       <r>   -4.2442    1.0000 </r>
       <r>   -4.2406    1.0000 </r>
       <r>   -4.2263    1.0000 </r>
       <r>   -4.2262    1.0000 </r>
       <r>   -4.2261    1.0000 </r>
       <r>   -4.2175    1.0000 </r>
       <r>   -4.2175    1.0000 </r>
       <r>   -4.2173    1.0000 </r>
       <r>   -4.2151    1.0000 </r>
       <r>   -4.2151    1.0000 </r>
       <r>   -4.2150    1.0000 </r>
       <r>   -4.2116    1.0000 </r>
       <r>   -4.2115    1.0000 </r>
       <r>   -4.2115    1.0000 </r>
       <r>   -4.2089    1.0000 </r>
       <r>   -4.2089    1.0000 </r>
       <r>   -4.2088    1.0000 </r>
       <r>   -4.1774    1.0000 </r>
       <r>   -4.1772    1.0000 </r>
       <r>   -4.1772    1.0000 </r>
       <r>   -4.0954    1.0000 </r>
       <r>   -4.0951    1.0000 </r>
       <r>   -4.0948    1.0000 </r>
       <r>   -4.0767    1.0000 </r>
       <r>   -4.0766    1.0000 </r>
       <r>   -4.0765    1.0000 </r>
       <r>   -4.0742    1.0000 </r>
       <r>   -4.0740    1.0000 </r>
       <r>   -4.0739    1.0000 </r>
       <r>   -4.0542    1.0000 </r>
       <r>   -4.0542    1.0000 </r>
       <r>   -4.0540    1.0000 </r>
       <r>   -4.0423    1.0000 </r>
       <r>   -4.0422    1.0000 </r>
       <r>   -4.0418    1.0000 </r>
       <r>   -4.0149    1.0000 </r>
       <r>   -4.0023    1.0000 </r>
       <r>   -4.0022    1.0000 </r>
       <r>   -4.0021    1.0000 </r>
       <r>   -3.9688    1.0000 </r>
       <r>   -3.9672    1.0000 </r>
       <r>   -3.9361    1.0000 </r>
       <r>   -3.9360    1.0000 </r>
       <r>   -3.9358    1.0000 </r>
       <r>   -3.9269    1.0000 </r>
       <r>   -3.9267    1.0000 </r>
       <r>   -3.9266    1.0000 </r>
       <r>   -3.9075    1.0000 </r>
       <r>   -3.9071    1.0000 </r>
       <r>   -3.9069    1.0000 </r>
       <r>   -3.8776    1.0000 </r>
       <r>   -3.8772    1.0000 </r>
       <r>   -3.8770    1.0000 </r>
       <r>   -3.8753    1.0000 </r>
       <r>   -3.8751    1.0000 </r>
       <r>   -3.8747    1.0000 </r>
       <r>   -3.8309    1.0000 </r>
       <r>   -3.8289    1.0000 </r>
       <r>   -3.8287    1.0000 </r>
       <r>   -3.8286    1.0000 </r>
       <r>   -3.8097    1.0000 </r>
       <r>   -3.8096    1.0000 </r>
       <r>   -3.8095    1.0000 </r>
       <r>   -3.7959    1.0000 </r>
       <r>   -3.7958    1.0000 </r>
       <r>   -3.7957    1.0000 </r>
       <r>   -3.7845    1.0000 </r>
       <r>   -3.7840    1.0000 </r>
       <r>   -3.7840    1.0000 </r>
       <r>   -3.7730    1.0000 </r>
       <r>   -3.7726    1.0000 </r>
       <r>   -3.7723    1.0000 </r>
       <r>   -3.7489    1.0000 </r>
       <r>   -3.7487    1.0000 </r>
       <r>   -3.7484    1.0000 </r>
       <r>   -3.7066    1.0000 </r>
       <r>   -3.7065    1.0000 </r>
       <r>   -3.7063    1.0000 </r>
       <r>   -3.7046    1.0000 </r>
       <r>   -3.7045    1.0000 </r>
       <r>   -3.7045    1.0000 </r>
       <r>   -3.6805    1.0000 </r>
       <r>   -3.6799    1.0000 </r>
       <r>   -3.6797    1.0000 </r>
       <r>   -3.6743    1.0000 </r>
       <r>   -3.6742    1.0000 </r>
       <r>   -3.6741    1.0000 </r>
       <r>   -3.6670    1.0000 </r>
       <r>   -3.6670    1.0000 </r>
       <r>   -3.6400    1.0000 </r>
       <r>   -3.6386    1.0000 </r>
       <r>   -3.6382    1.0000 </r>
       <r>   -3.6157    1.0000 </r>
       <r>   -3.6140    1.0000 </r>
       <r>   -3.6138    1.0000 </r>
       <r>   -3.6131    1.0000 </r>
       <r>   -3.6008    1.0000 </r>
       <r>   -3.6004    1.0000 </r>
       <r>   -3.6001    1.0000 </r>
       <r>   -3.5989    1.0000 </r>
       <r>   -3.5985    1.0000 </r>
       <r>   -3.5983    1.0000 </r>
       <r>   -3.5952    1.0000 </r>
       <r>   -3.5951    1.0000 </r>
       <r>   -3.5948    1.0000 </r>
       <r>   -3.5791    1.0000 </r>
       <r>   -3.5788    1.0000 </r>
       <r>   -3.5786    1.0000 </r>
       <r>   -3.5488    1.0000 </r>
       <r>   -3.5484    1.0000 </r>
       <r>   -3.5477    1.0000 </r>
       <r>   -3.5349    1.0000 </r>
       <r>   -3.5278    1.0000 </r>
       <r>   -3.5098    1.0000 </r>
       <r>   -3.5096    1.0000 </r>
       <r>   -3.4456    1.0000 </r>
       <r>   -3.4454    1.0000 </r>
       <r>   -3.4453    1.0000 </r>
       <r>   -3.4397    1.0000 </r>
       <r>   -3.4314    1.0000 </r>
       <r>   -3.4314    1.0000 </r>
       <r>   -3.4311    1.0000 </r>
       <r>   -3.4257    1.0000 </r>
       <r>   -3.4257    1.0000 </r>
       <r>   -3.4256    1.0000 </r>
       <r>   -3.4176    1.0000 </r>
       <r>   -3.4171    1.0000 </r>
       <r>   -3.4168    1.0000 </r>
       <r>   -3.4156    1.0000 </r>
       <r>   -3.4156    1.0000 </r>
       <r>   -3.4134    1.0000 </r>
       <r>   -3.4133    1.0000 </r>
       <r>   -3.4133    1.0000 </r>
       <r>   -3.4077    1.0000 </r>
       <r>   -3.3966    1.0000 </r>
       <r>   -3.3963    1.0000 </r>
       <r>   -3.3960    1.0000 </r>
       <r>   -3.3839    1.0000 </r>
       <r>   -3.3838    1.0000 </r>
       <r>   -3.3728    1.0000 </r>
       <r>   -3.3606    1.0000 </r>
       <r>   -3.3606    1.0000 </r>
       <r>   -3.3595    1.0000 </r>
       <r>   -3.3485    1.0000 </r>
       <r>   -3.3473    1.0000 </r>
       <r>   -3.3473    1.0000 </r>
       <r>   -3.3470    1.0000 </r>
       <r>   -3.3450    1.0000 </r>
       <r>   -3.3346    1.0000 </r>
       <r>   -3.3340    1.0000 </r>
       <r>   -3.3338    1.0000 </r>
       <r>   -3.3125    1.0000 </r>
       <r>   -3.3125    1.0000 </r>
       <r>   -3.3026    1.0000 </r>
       <r>   -3.3022    1.0000 </r>
       <r>   -3.3020    1.0000 </r>
       <r>   -3.2703    1.0000 </r>
       <r>   -3.2701    1.0000 </r>
       <r>   -3.2700    1.0000 </r>
       <r>   -3.2661    1.0000 </r>
       <r>   -3.2659    1.0000 </r>
       <r>   -3.2570    1.0000 </r>
       <r>   -3.2566    1.0000 </r>
       <r>   -3.2530    1.0000 </r>
[...]
       <r>   -14.5727     0.0000     8.0000 </r>
       <r>   -14.4783     0.0000     8.0000 </r>
       <r>   -14.3839     0.0000     8.0000 </r>
       <r>   -14.2894     0.0000     8.0000 </r>
       <r>   -14.1950     0.0000     8.0000 </r>
       <r>   -14.1006     0.0000     8.0000 </r>
       <r>   -14.0062     0.0000     8.0000 </r>
       <r>   -13.9118     0.0000     8.0000 </r>
       <r>   -13.8174     0.0000     8.0000 </r>
       <r>   -13.7230     0.0000     8.0000 </r>
       <r>   -13.6286     0.0000     8.0000 </r>
       <r>   -13.5342     0.0000     8.0000 </r>
       <r>   -13.4397     0.0000     8.0000 </r>
       <r>   -13.3453     0.0000     8.0000 </r>
       <r>   -13.2509     0.0000     8.0000 </r>
       <r>   -13.1565     0.0000     8.0000 </r>
       <r>   -13.0621     0.0000     8.0000 </r>
       <r>   -12.9677     0.0000     8.0000 </r>
       <r>   -12.8733     0.0000     8.0000 </r>
       <r>   -12.7789     0.0000     8.0000 </r>
       <r>   -12.6845     0.0000     8.0000 </r>
       <r>   -12.5900     0.0000     8.0000 </r>
       <r>   -12.4956     0.0000     8.0000 </r>
       <r>   -12.4012     0.0000     8.0000 </r>
       <r>   -12.3068     0.0000     8.0000 </r>
       <r>   -12.2124     0.0000     8.0000 </r>
       <r>   -12.1180     0.0000     8.0000 </r>
       <r>   -12.0236     0.0000     8.0000 </r>
       <r>   -11.9292     0.0000     8.0000 </r>
       <r>   -11.8348     0.0000     8.0000 </r>
       <r>   -11.7403     0.0000     8.0000 </r>
       <r>   -11.6459     0.0000     8.0000 </r>
       <r>   -11.5515     0.0000     8.0000 </r>
       <r>   -11.4571     0.0000     8.0000 </r>
       <r>   -11.3627     0.0000     8.0000 </r>
       <r>   -11.2683     0.0000     8.0000 </r>
       <r>   -11.1739     0.0000     8.0000 </r>
       <r>   -11.0795     0.0000     8.0000 </r>
       <r>   -10.9851     0.0000     8.0000 </r>
       <r>   -10.8906     0.0000     8.0000 </r>
       <r>   -10.7962     0.0000     8.0000 </r>
       <r>   -10.7018     0.0000     8.0000 </r>
       <r>   -10.6074     0.0000     8.0000 </r>
       <r>   -10.5130     0.0000     8.0000 </r>
       <r>   -10.4186     0.0000     8.0000 </r>
       <r>   -10.3242     0.0000     8.0000 </r>
       <r>   -10.2298     0.0000     8.0000 </r>
       <r>   -10.1354     0.0000     8.0000 </r>
       <r>   -10.0409     0.0000     8.0000 </r>
       <r>    -9.9465     0.0000     8.0000 </r>
       <r>    -9.8521     0.0000     8.0000 </r>
       <r>    -9.7577     0.0000     8.0000 </r>
       <r>    -9.6633     0.0000     8.0000 </r>
       <r>    -9.5689     0.0005     8.0001 </r>
       <r>    -9.4745     0.3296     8.0312 </r>
       <r>    -9.3801     1.4849     8.1714 </r>
       <r>    -9.2857     6.4780     8.7829 </r>
       <r>    -9.1912     0.9820     8.8757 </r>
       <r>    -9.0968     2.6246     9.1234 </r>
       <r>    -9.0024     6.2676     9.7152 </r>
       <r>    -8.9080     7.8389    10.4553 </r>
       <r>    -8.8136     6.4702    11.0661 </r>
       <r>    -8.7192     1.9542    11.2506 </r>
       <r>    -8.6248     5.9043    11.8080 </r>
       <r>    -8.5304    18.0883    13.5158 </r>
       <r>    -8.4360     7.2601    14.2012 </r>
       <r>    -8.3415     6.5959    14.8240 </r>
       <r>    -8.2471     1.8990    15.0032 </r>
       <r>    -8.1527     6.2491    15.5932 </r>
       <r>    -8.0583    15.7912    17.0841 </r>
       <r>    -7.9639    12.2682    18.2424 </r>
       <r>    -7.8695    21.0975    20.2342 </r>
       <r>    -7.7751     9.6609    21.1463 </r>
       <r>    -7.6807     6.9356    21.8011 </r>
       <r>    -7.5862     8.6563    22.6184 </r>
       <r>    -7.4918    14.5985    23.9966 </r>
       <r>    -7.3974    18.4984    25.7431 </r>
       <r>    -7.3030     8.5595    26.5512 </r>
       <r>    -7.2086    19.3397    28.3771 </r>
       <r>    -7.1142    14.6506    29.7603 </r>
       <r>    -7.0198    19.4365    31.5953 </r>
       <r>    -6.9254     8.6072    32.4079 </r>
       <r>    -6.8310    31.2084    35.3543 </r>
       <r>    -6.7365    19.0952    37.1571 </r>
       <r>    -6.6421    21.0726    39.1466 </r>
       <r>    -6.5477    10.0422    40.0947 </r>
       <r>    -6.4533    22.5920    42.2276 </r>
       <r>    -6.3589    26.0518    44.6872 </r>
       <r>    -6.2645    16.1862    46.2154 </r>
       <r>    -6.1701    42.1768    50.1973 </r>
       <r>    -6.0757    27.0138    52.7478 </r>
       <r>    -5.9813    37.4478    56.2833 </r>
       <r>    -5.8868    32.8703    59.3866 </r>
       <r>    -5.7924    13.9673    60.7053 </r>
       <r>    -5.6980    50.7494    65.4966 </r>
       <r>    -5.6036    82.1133    73.2490 </r>
       <r>    -5.5092    80.1630    80.8173 </r>
       <r>    -5.4148    58.9472    86.3826 </r>
       <r>    -5.3204    84.7142    94.3805 </r>
       <r>    -5.2260    90.3607   102.9116 </r>
       <r>    -5.1316   102.0899   112.5500 </r>
       <r>    -5.0371   114.1762   123.3295 </r>
       <r>    -4.9427   135.5733   136.1292 </r>
       <r>    -4.8483   137.0617   149.0694 </r>
       <r>    -4.7539   128.3049   161.1828 </r>
       <r>    -4.6595   142.1585   174.6041 </r>
       <r>    -4.5651   201.5599   193.6337 </r>
       <r>    -4.4707   222.0577   214.5984 </r>
       <r>    -4.3763   277.5602   240.8032 </r>
       <r>    -4.2819   274.1642   266.6874 </r>
       <r>    -4.1874   218.5096   287.3172 </r>
       <r>    -4.0930   216.8948   307.7945 </r>
       <r>    -3.9986   195.9394   326.2934 </r>
       <r>    -3.9042   278.9792   352.6321 </r>
       <r>    -3.8098   268.4067   377.9727 </r>
       <r>    -3.7154   302.4390   406.5264 </r>
       <r>    -3.6210   328.8930   437.5776 </r>
       <r>    -3.5266   321.8940   467.9680 </r>
       <r>    -3.4322   363.8458   502.3191 </r>
       <r>    -3.3377   458.6619   545.6220 </r>
       <r>    -3.2433   507.8858   593.5721 </r>
       <r>    -3.1489   458.9024   636.8976 </r>
       <r>    -3.0545   448.7838   679.2679 </r>
       <r>    -2.9601   356.0754   712.8854 </r>
       <r>    -2.8657   350.5001   745.9766 </r>
       <r>    -2.7713   351.5314   779.1651 </r>
       <r>    -2.6769   384.5504   815.4710 </r>
       <r>    -2.5825   429.8890   856.0573 </r>
       <r>    -2.4880   376.7597   891.6277 </r>
       <r>    -2.3936   423.0861   931.5718 </r>
       <r>    -2.2992   429.6118   972.1319 </r>
       <r>    -2.2048   420.9394  1011.8734 </r>
       <r>    -2.1104   509.8377  1060.0078 </r>
       <r>    -2.0160   604.2091  1117.0519 </r>
       <r>    -1.9216   505.0577  1164.7350 </r>
       <r>    -1.8272   211.9569  1184.7461 </r>
       <r>    -1.7328    84.0445  1192.6809 </r>
       <r>    -1.6383    49.0901  1197.3156 </r>
       <r>    -1.5439    59.9328  1202.9739 </r>
       <r>    -1.4495    53.7875  1208.0520 </r>
       <r>    -1.3551    92.3354  1216.7695 </r>
       <r>    -1.2607    61.3219  1222.5590 </r>
       <r>    -1.1663    43.5884  1226.6742 </r>
       <r>    -1.0719    13.3095  1227.9308 </r>
       <r>    -0.9775    39.7626  1231.6848 </r>
       <r>    -0.8831    40.4606  1235.5048 </r>
       <r>    -0.7886    46.0767  1239.8549 </r>
       <r>    -0.6942    38.1566  1243.4574 </r>
       <r>    -0.5998    66.9608  1249.7792 </r>
       <r>    -0.5054    23.1285  1251.9628 </r>
       <r>    -0.4110    28.9766  1254.6985 </r>
       <r>    -0.3166    39.8606  1258.4618 </r>
       <r>    -0.2222    39.1389  1262.1570 </r>
       <r>    -0.1278    28.2173  1264.8210 </r>
       <r>    -0.0333    31.9104  1267.8337 </r>
       <r>     0.0611    45.7165  1272.1498 </r>
       <r>     0.1555    46.8411  1276.5722 </r>
       <r>     0.2499    16.0153  1278.0842 </r>
       <r>     0.3443    23.5779  1280.3102 </r>
       <r>     0.4387    40.1030  1284.0964 </r>
       <r>     0.5331    36.0931  1287.5040 </r>
       <r>     0.6275    28.2294  1290.1691 </r>
       <r>     0.7219    49.1967  1294.8139 </r>
       <r>     0.8164    41.3606  1298.7188 </r>
       <r>     0.9108    31.7366  1301.7151 </r>
       <r>     1.0052    28.3680  1304.3933 </r>
       <r>     1.0996    27.6618  1307.0049 </r>
       <r>     1.1940    46.9228  1311.4349 </r>
       <r>     1.2884    24.6442  1313.7616 </r>
       <r>     1.3828    16.9742  1315.3642 </r>
       <r>     1.4772    36.8446  1318.8427 </r>
       <r>     1.5716    30.8933  1321.7594 </r>
       <r>     1.6661    31.1010  1324.6957 </r>
       <r>     1.7605    19.6459  1326.5505 </r>
       <r>     1.8549    38.0282  1330.1408 </r>
       <r>     1.9493    38.2228  1333.7494 </r>
       <r>     2.0437    40.9334  1337.6140 </r>
       <r>     2.1381    23.9943  1339.8793 </r>
       <r>     2.2325    38.0459  1343.4713 </r>
       <r>     2.3269    26.6194  1345.9845 </r>
       <r>     2.4213    21.0112  1347.9682 </r>
       <r>     2.5158    18.1106  1349.6780 </r>
       <r>     2.6102     9.1885  1350.5455 </r>
       <r>     2.7046    19.9931  1352.4331 </r>
       <r>     2.7990    31.3435  1355.3923 </r>
       <r>     2.8934    28.1383  1358.0488 </r>
       <r>     2.9878    28.3598  1360.7263 </r>
       <r>     3.0822    19.9063  1362.6057 </r>
       <r>     3.1766    21.9877  1364.6816 </r>
       <r>     3.2710    23.2390  1366.8756 </r>
       <r>     3.3655     7.9874  1367.6297 </r>
       <r>     3.4599    28.8110  1370.3498 </r>
       <r>     3.5543    33.0857  1373.4735 </r>
       <r>     3.6487    27.4821  1376.0681 </r>
       <r>     3.7431     9.2701  1376.9433 </r>
       <r>     3.8375    18.4535  1378.6855 </r>
       <r>     3.9319    43.6818  1382.8095 </r>
       <r>     4.0263    34.3183  1386.0496 </r>
       <r>     4.1207    38.8592  1389.7183 </r>
       <r>     4.2152    53.7744  1394.7952 </r>
       <r>     4.3096    35.0078  1398.1004 </r>
       <r>     4.4040    20.0091  1399.9894 </r>
       <r>     4.4984    21.7916  1402.0468 </r>
       <r>     4.5928    31.4911  1405.0199 </r>
       <r>     4.6872    37.4978  1408.5601 </r>
       <r>     4.7816    40.1804  1412.3536 </r>
       <r>     4.8760    47.9964  1416.8850 </r>
       <r>     4.9704    39.2746  1420.5930 </r>
       <r>     5.0649    40.1074  1424.3796 </r>
       <r>     5.1593    36.8686  1427.8604 </r>
       <r>     5.2537    28.6855  1430.5686 </r>
       <r>     5.3481    59.3283  1436.1699 </r>
       <r>     5.4425    36.4668  1439.6127 </r>
       <r>     5.5369    54.9110  1444.7970 </r>
       <r>     5.6313    34.5591  1448.0597 </r>
       <r>     5.7257    34.4996  1451.3169 </r>
       <r>     5.8201    33.6075  1454.4898 </r>
       <r>     5.9146    32.3031  1457.5396 </r>
       <r>     6.0090    60.9026  1463.2895 </r>
       <r>     6.1034    54.4824  1468.4332 </r>
       <r>     6.1978    45.5859  1472.7370 </r>
       <r>     6.2922    40.2501  1476.5371 </r>
       <r>     6.3866    36.7542  1480.0071 </r>
       <r>     6.4810    50.9680  1484.8191 </r>
       <r>     6.5754    42.3027  1488.8129 </r>
       <r>     6.6698    35.8748  1492.1999 </r>
       <r>     6.7643    37.2366  1495.7154 </r>
       <r>     6.8587    58.6920  1501.2566 </r>
       <r>     6.9531    49.2723  1505.9085 </r>
       <r>     7.0475    36.5883  1509.3628 </r>
       <r>     7.1419    26.9597  1511.9081 </r>
       <r>     7.2363     0.9728  1512.0000 </r>
       <r>     7.3307     0.0001  1512.0000 </r>
       <r>     7.4251     0.0000  1512.0000 </r>
       <r>     7.5196     0.0000  1512.0000 </r>
       <r>     7.6140     0.0000  1512.0000 </r>
       <r>     7.7084     0.0000  1512.0000 </r>
       <r>     7.8028     0.0000  1512.0000 </r>
       <r>     7.8972     0.0000  1512.0000 </r>
       <r>     7.9916     0.0000  1512.0000 </r>
       <r>     8.0860     0.0000  1512.0000 </r>
       <r>     8.1804     0.0000  1512.0000 </r>
       <r>     8.2748     0.0000  1512.0000 </r>
       <r>     8.3693     0.0000  1512.0000 </r>
      </set>
     </set>
    </array>
   </total>
  </dos>
 </calculation>
 <structure name="finalpos" >
  <crystal>
   <varray name="basis" >
    <v>      10.28518105       0.00000000       0.00000000 </v>
    <v>       5.14259052       8.90722807       0.00000000 </v>
    <v>       0.00000000       0.00000000      27.79016876 </v>
   </varray>
   <i name="volume">   2545.92553775 </i>
   <varray name="rec_basis" >
    <v>       0.09722726      -0.05613419       0.00000000 </v>
    <v>       0.00000000       0.11226837       0.00000000 </v>
    <v>       0.00000000       0.00000000       0.03598395 </v>
   </varray>
  </crystal>
  <varray name="positions" >
   <v>       0.00000000       0.00000000       0.22663990 </v>
   <v>       0.00000000       0.50000000       0.22663990 </v>
   <v>       0.50000000       0.00000000       0.22663990 </v>
   <v>       0.50000000       0.50000000       0.22663990 </v>
   <v>       0.00000000       0.25000000       0.22663990 </v>
   <v>       0.00000000       0.75000000       0.22663990 </v>
   <v>       0.50000000       0.25000000       0.22663990 </v>
   <v>       0.50000000       0.75000000       0.22663990 </v>
   <v>       0.25000000       0.00000000       0.22663990 </v>
   <v>       0.25000000       0.50000000       0.22663990 </v>
   <v>       0.75000000       0.00000000       0.22663990 </v>
   <v>       0.75000000       0.50000000       0.22663990 </v>
   <v>       0.25000000       0.25000000       0.22663990 </v>
   <v>       0.25000000       0.75000000       0.22663990 </v>
   <v>       0.75000000       0.25000000       0.22663990 </v>
   <v>       0.75000000       0.75000000       0.22663990 </v>
   <v>       0.16666666       0.16666666       0.30218653 </v>
   <v>       0.16666666       0.66666666       0.30218653 </v>
   <v>       0.66666666       0.16666666       0.30218653 </v>
   <v>       0.66666666       0.66666666       0.30218653 </v>
   <v>       0.16666666       0.41666666       0.30218653 </v>
   <v>       0.16666666       0.91666666       0.30218653 </v>
   <v>       0.66666666       0.41666666       0.30218653 </v>
   <v>       0.66666666       0.91666666       0.30218653 </v>
   <v>       0.41666666       0.16666666       0.30218653 </v>
   <v>       0.41666666       0.66666666       0.30218653 </v>
   <v>       0.91666666       0.16666666       0.30218653 </v>
   <v>       0.91666666       0.66666666       0.30218653 </v>
   <v>       0.41666666       0.41666666       0.30218653 </v>
   <v>       0.41666666       0.91666666       0.30218653 </v>
   <v>       0.91666666       0.41666666       0.30218653 </v>
   <v>       0.91666666       0.91666666       0.30218653 </v>
   <v>       0.08333333       0.08333333       0.37716320 </v>
   <v>       0.08333333       0.58333333       0.37716320 </v>
   <v>       0.58333333       0.08333333       0.37716320 </v>
   <v>       0.58333333       0.58333333       0.37716320 </v>
   <v>       0.08351614       0.33324190       0.37729758 </v>
   <v>       0.08351614       0.83324190       0.37729758 </v>
   <v>       0.58351614       0.33324190       0.37729758 </v>
   <v>       0.58351614       0.83324190       0.37729758 </v>
   <v>       0.33324190       0.08351614       0.37729758 </v>
   <v>       0.33324190       0.58351614       0.37729758 </v>
   <v>       0.83324190       0.08351614       0.37729758 </v>
   <v>       0.83324190       0.58351614       0.37729758 </v>
   <v>       0.33324190       0.33324190       0.37729758 </v>
   <v>       0.33324190       0.83324190       0.37729758 </v>
   <v>       0.83324190       0.33324190       0.37729758 </v>
   <v>       0.83324190       0.83324190       0.37729758 </v>
   <v>       0.00012997       0.00012997       0.45242342 </v>
   <v>       0.00012997       0.50012997       0.45242342 </v>
   <v>       0.50012997       0.00012997       0.45242342 </v>
   <v>       0.50012997       0.50012997       0.45242342 </v>
   <v>       0.00012997       0.24974005       0.45242342 </v>
   <v>       0.00012997       0.74974005       0.45242342 </v>
   <v>       0.50012997       0.24974005       0.45242342 </v>
   <v>       0.50012997       0.74974005       0.45242342 </v>
   <v>       0.24974005       0.00012997       0.45242342 </v>
   <v>       0.24974005       0.50012997       0.45242342 </v>
   <v>       0.74974005       0.00012997       0.45242342 </v>
   <v>       0.74974005       0.50012997       0.45242342 </v>
   <v>       0.25000000       0.25000000       0.45288750 </v>
   <v>       0.25000000       0.75000000       0.45288750 </v>
   <v>       0.75000000       0.25000000       0.45288750 </v>
   <v>       0.75000000       0.75000000       0.45288750 </v>
   <v>       0.16660598       0.16660598       0.52813907 </v>
   <v>       0.16660598       0.66660598       0.52813907 </v>
   <v>       0.66660598       0.16660598       0.52813907 </v>
   <v>       0.66660598       0.66660598       0.52813907 </v>
   <v>       0.16660598       0.41678801       0.52813907 </v>
   <v>       0.16660598       0.91678801       0.52813907 </v>
   <v>       0.66660598       0.41678801       0.52813907 </v>
   <v>       0.66660598       0.91678801       0.52813907 </v>
   <v>       0.41678801       0.16660598       0.52813907 </v>
   <v>       0.41678801       0.66660598       0.52813907 </v>
   <v>       0.91678801       0.16660598       0.52813907 </v>
   <v>       0.91678801       0.66660598       0.52813907 </v>
   <v>       0.41666666       0.41666666       0.52741939 </v>
   <v>       0.41666666       0.91666666       0.52741939 </v>
   <v>       0.91666666       0.41666666       0.52741939 </v>
   <v>       0.91666666       0.91666666       0.52741939 </v>
   <v>       0.08333333       0.08333333       0.60253339 </v>
   <v>       0.08333333       0.58333333       0.60253339 </v>
   <v>       0.58333333       0.08333333       0.60253339 </v>
   <v>       0.58333333       0.58333333       0.60253339 </v>
   <v>       0.08130935       0.33434529       0.60320464 </v>
   <v>       0.08130935       0.83434529       0.60320464 </v>
   <v>       0.58130935       0.33434529       0.60320464 </v>
   <v>       0.58130935       0.83434529       0.60320464 </v>
   <v>       0.33434529       0.08130935       0.60320464 </v>
   <v>       0.33434529       0.58130935       0.60320464 </v>
   <v>       0.83434529       0.08130935       0.60320464 </v>
   <v>       0.83434529       0.58130935       0.60320464 </v>
   <v>       0.33434529       0.33434529       0.60320464 </v>
   <v>       0.33434529       0.83434529       0.60320464 </v>
   <v>       0.83434529       0.33434529       0.60320464 </v>
   <v>       0.83434529       0.83434529       0.60320464 </v>
   <v>       0.49714648       0.49714648       0.68057248 </v>
   <v>       0.49714648       0.99714648       0.68057248 </v>
   <v>       0.99714648       0.49714648       0.68057248 </v>
   <v>       0.99714648       0.99714648       0.68057248 </v>
   <v>       0.49714648       0.25570704       0.68057248 </v>
   <v>       0.49714648       0.75570704       0.68057248 </v>
   <v>       0.99714648       0.25570704       0.68057248 </v>
   <v>       0.99714648       0.75570704       0.68057248 </v>
   <v>       0.25570704       0.49714648       0.68057248 </v>
   <v>       0.25570704       0.99714648       0.68057248 </v>
   <v>       0.75570704       0.49714648       0.68057248 </v>
   <v>       0.75570704       0.99714648       0.68057248 </v>
   <v>       0.25000000       0.25000000       0.67480871 </v>
   <v>       0.25000000       0.75000000       0.67480871 </v>
   <v>       0.75000000       0.25000000       0.67480871 </v>
   <v>       0.75000000       0.75000000       0.67480871 </v>
   <v>       0.08195833       0.08333333       0.71992999 </v>
   <v>       0.08333333       0.58333333       0.72043888 </v>
   <v>       0.58333333       0.08333333       0.72043888 </v>
   <v>       0.58333333       0.58333333       0.72043888 </v>
  </varray>
 </structure>
</modeling>
