<?xml version="1.0" encoding="ISO-8859-1"?>
<modeling>
 <generator>
  <i name="program" type="string">vasp </i>
  <i name="version" type="string">5.4.4.18Apr17-6-g9f103f2a35  </i>
  <i name="subversion" type="string">(build Feb 09 2021 16:27:36) complex            parallel </i>
  <i name="platform" type="string">IFC15_impi </i>
  <i name="date" type="string">2021 04 29 </i>
  <i name="time" type="string">03:24:02 </i>
 </generator>
 <incar>
  <i type="int" name="ISTART">     0</i>
  <i type="string" name="PREC">a</i>
  <i type="logical" name="ADDGRID"> T  </i>
  <i type="int" name="NELM">   300</i>
  <i type="int" name="NELMIN">     5</i>
  <i type="int" name="IBRION">    -1</i>
  <i name="EDIFF">      0.00000100</i>
  <i name="ENCUT">    500.00000000</i>
  <i type="logical" name="LREAL"> F  </i>
  <i type="int" name="ISMEAR">     0</i>
  <i name="SIGMA">      0.05000000</i>
  <i type="logical" name="LWAVE"> F  </i>
  <i type="logical" name="LCHARG"> F  </i>
  <v type="int" name="KPOINT_BSE">    -1     0     0     0</v>
  <i type="int" name="NELM">   300</i>
 </incar>
 <structure name="primitive_cell" >
  <crystal>
   <varray name="basis" >
    <v>      10.28518105       0.00000000       0.00000000 </v>
    <v>       5.14259052       8.90722807       0.00000000 </v>
    <v>       0.00000000       0.00000000      27.79016876 </v>
   </varray>
   <i name="volume">   2545.92553775 </i>
   <varray name="rec_basis" >
    <v>       0.09722726      -0.05613419       0.00000000 </v>
    <v>       0.00000000       0.11226837       0.00000000 </v>
    <v>       0.00000000       0.00000000       0.03598395 </v>
   </varray>
  </crystal>
  <varray name="positions" >
   <v>       0.00000000       0.00000000       0.22663990 </v>
   <v>       0.16666666      -0.08333334       0.30218653 </v>
   <v>      -0.08333334       0.16666666       0.30218653 </v>
   <v>       0.25000000       0.00000000       0.22663990 </v>
   <v>       0.00000000      -0.25000000       0.22663990 </v>
   <v>       0.25000000      -0.25000000       0.22663990 </v>
   <v>      -0.25000000       0.25000000       0.22663990 </v>
   <v>       0.00000000       0.25000000       0.22663990 </v>
   <v>      -0.25000000       0.00000000       0.22663990 </v>
   <v>      -0.08333334      -0.08333334       0.30218653 </v>
   <v>       0.16666666       0.16666666       0.30218653 </v>
   <v>       0.16666666      -0.33333334       0.30218653 </v>
   <v>      -0.33333334       0.16666666       0.30218653 </v>
   <v>       0.08333333       0.08333333       0.37716320 </v>
   <v>       0.08351614      -0.16675810       0.37729758 </v>
   <v>      -0.16675810       0.08351614       0.37729758 </v>
   <v>       0.41666666      -0.08333334       0.30218653 </v>
   <v>      -0.08333334       0.41666666       0.30218653 </v>
   <v>      -0.33333334       0.41666666       0.30218653 </v>
   <v>       0.41666666      -0.33333334       0.30218653 </v>
   <v>      -0.50000000       0.25000000       0.22663990 </v>
   <v>       0.25000000       0.25000000       0.22663990 </v>
   <v>       0.25000000      -0.50000000       0.22663990 </v>
   <v>      -0.25000000      -0.50000000       0.22663990 </v>
   <v>      -0.25000000      -0.25000000       0.22663990 </v>
   <v>      -0.50000000      -0.25000000       0.22663990 </v>
   <v>      -0.08333334      -0.33333334       0.30218653 </v>
   <v>      -0.33333334      -0.08333334       0.30218653 </v>
   <v>       0.33324190      -0.16675810       0.37729758 </v>
   <v>      -0.16675810       0.33324190       0.37729758 </v>
   <v>      -0.16675810      -0.16675810       0.37729758 </v>
   <v>       0.00000000      -0.50000000       0.22663990 </v>
   <v>      -0.50000000      -0.50000000       0.22663990 </v>
   <v>      -0.50000000       0.00000000       0.22663990 </v>
   <v>      -0.41666667       0.08333333       0.37716320 </v>
   <v>       0.08333333      -0.41666667       0.37716320 </v>
   <v>       0.33324190      -0.41648386       0.37729758 </v>
   <v>      -0.41648386       0.33324190       0.37729758 </v>
   <v>       0.33324190       0.08351614       0.37729758 </v>
   <v>       0.08351614       0.33324190       0.37729758 </v>
   <v>       0.16666666       0.41666666       0.30218653 </v>
   <v>       0.41666666       0.16666666       0.30218653 </v>
   <v>       0.41666666       0.41666666       0.30218653 </v>
   <v>       0.00012997       0.00012997       0.45242342 </v>
   <v>      -0.33333334      -0.33333334       0.30218653 </v>
   <v>       0.00012997       0.24974005       0.45242342 </v>
   <v>       0.24974005       0.00012997       0.45242342 </v>
   <v>      -0.25025995       0.00012997       0.45242342 </v>
   <v>       0.00012997      -0.25025995       0.45242342 </v>
   <v>       0.25000000      -0.25000000       0.45288750 </v>
   <v>      -0.25000000       0.25000000       0.45288750 </v>
   <v>      -0.41666667      -0.41666667       0.37716320 </v>
   <v>      -0.41648386      -0.16675810       0.37729758 </v>
   <v>      -0.16675810      -0.41648386       0.37729758 </v>
   <v>       0.33324190       0.33324190       0.37729758 </v>
   <v>       0.24974005      -0.49987003       0.45242342 </v>
   <v>      -0.49987003       0.24974005       0.45242342 </v>
   <v>      -0.49987003      -0.25025995       0.45242342 </v>
   <v>      -0.25025995      -0.49987003       0.45242342 </v>
   <v>       0.25000000       0.25000000       0.45288750 </v>
   <v>      -0.25000000      -0.25000000       0.45288750 </v>
   <v>       0.00012997      -0.49987003       0.45242342 </v>
   <v>      -0.49987003       0.00012997       0.45242342 </v>
   <v>      -0.49987003      -0.49987003       0.45242342 </v>
   <v>      -0.08333334      -0.08333334      -0.47258061 </v>
   <v>      -0.08321199       0.16660598      -0.47186093 </v>
   <v>       0.16660598      -0.08321199      -0.47186093 </v>
   <v>       0.16660598       0.16660598      -0.47186093 </v>
   <v>      -0.33339402       0.16660598      -0.47186093 </v>
   <v>       0.16660598      -0.33339402      -0.47186093 </v>
   <v>       0.41666666      -0.08333334      -0.47258061 </v>
   <v>      -0.08333334       0.41666666      -0.47258061 </v>
   <v>      -0.33339402      -0.08321199      -0.47186093 </v>
   <v>      -0.08321199      -0.33339402      -0.47186093 </v>
   <v>      -0.33339402       0.41678801      -0.47186093 </v>
   <v>       0.41678801      -0.33339402      -0.47186093 </v>
   <v>       0.41666666       0.41666666      -0.47258061 </v>
   <v>       0.16660598       0.41678801      -0.47186093 </v>
   <v>       0.41678801       0.16660598      -0.47186093 </v>
   <v>      -0.33339402      -0.33339402      -0.47186093 </v>
   <v>       0.08333333       0.08333333      -0.39746661 </v>
   <v>      -0.16565471       0.08130935      -0.39679536 </v>
   <v>       0.08130935      -0.16565471      -0.39679536 </v>
   <v>      -0.16565471      -0.16565471      -0.39679536 </v>
   <v>      -0.16565471       0.33434529      -0.39679536 </v>
   <v>       0.33434529      -0.16565471      -0.39679536 </v>
   <v>      -0.41666667       0.08333333      -0.39746661 </v>
   <v>       0.08333333      -0.41666667      -0.39746661 </v>
   <v>       0.08130935       0.33434529      -0.39679536 </v>
   <v>       0.33434529       0.08130935      -0.39679536 </v>
   <v>       0.33434529      -0.41869065      -0.39679536 </v>
   <v>      -0.41869065       0.33434529      -0.39679536 </v>
   <v>      -0.41666667      -0.41666667      -0.39746661 </v>
   <v>      -0.41869065      -0.16565471      -0.39679536 </v>
   <v>      -0.16565471      -0.41869065      -0.39679536 </v>
   <v>       0.33434529       0.33434529      -0.39679536 </v>
   <v>      -0.00285352      -0.00285352      -0.31942752 </v>
   <v>       0.25000000      -0.25000000      -0.32519129 </v>
   <v>      -0.25000000       0.25000000      -0.32519129 </v>
   <v>      -0.24429296      -0.00285352      -0.31942752 </v>
   <v>      -0.00285352      -0.24429296      -0.31942752 </v>
   <v>      -0.00285352       0.25570704      -0.31942752 </v>
   <v>       0.25570704      -0.00285352      -0.31942752 </v>
   <v>       0.25000000       0.25000000      -0.32519129 </v>
   <v>      -0.25000000      -0.25000000      -0.32519129 </v>
   <v>       0.49714648      -0.24429296      -0.31942752 </v>
   <v>      -0.24429296       0.49714648      -0.31942752 </v>
   <v>       0.25570704       0.49714648      -0.31942752 </v>
   <v>       0.49714648       0.25570704      -0.31942752 </v>
   <v>      -0.00285352       0.49714648      -0.31942752 </v>
   <v>       0.49714648      -0.00285352      -0.31942752 </v>
   <v>       0.49577148       0.49714648      -0.31993641 </v>
   <v>       0.08333333       0.08333333      -0.27956112 </v>
   <v>      -0.41666667       0.08333333      -0.27956112 </v>
   <v>       0.08333333      -0.41666667      -0.27956112 </v>
   <v>      -0.41666667      -0.41666667      -0.27956112 </v>
  </varray>
 </structure>
 <varray name="primitive_index" >
  <v type="int" >        1 </v>
  <v type="int" >       22 </v>
  <v type="int" >       27 </v>
  <v type="int" >        9 </v>
  <v type="int" >        6 </v>
  <v type="int" >       14 </v>
  <v type="int" >       15 </v>
  <v type="int" >        5 </v>
  <v type="int" >       11 </v>
  <v type="int" >       32 </v>
  <v type="int" >       17 </v>
  <v type="int" >       18 </v>
  <v type="int" >       19 </v>
  <v type="int" >       33 </v>
  <v type="int" >       38 </v>
  <v type="int" >       43 </v>
  <v type="int" >       30 </v>
  <v type="int" >       31 </v>
  <v type="int" >       23 </v>
  <v type="int" >       26 </v>
  <v type="int" >        7 </v>
  <v type="int" >       13 </v>
  <v type="int" >       10 </v>
  <v type="int" >       12 </v>
  <v type="int" >       16 </v>
  <v type="int" >        8 </v>
  <v type="int" >       28 </v>
  <v type="int" >       24 </v>
  <v type="int" >       46 </v>
  <v type="int" >       47 </v>
  <v type="int" >       48 </v>
  <v type="int" >        2 </v>
  <v type="int" >        4 </v>
  <v type="int" >        3 </v>
  <v type="int" >       35 </v>
  <v type="int" >       34 </v>
  <v type="int" >       42 </v>
  <v type="int" >       39 </v>
  <v type="int" >       41 </v>
  <v type="int" >       37 </v>
  <v type="int" >       21 </v>
  <v type="int" >       25 </v>
  <v type="int" >       29 </v>
  <v type="int" >       49 </v>
  <v type="int" >       20 </v>
  <v type="int" >       53 </v>
  <v type="int" >       57 </v>
  <v type="int" >       59 </v>
  <v type="int" >       54 </v>
  <v type="int" >       62 </v>
  <v type="int" >       63 </v>
  <v type="int" >       36 </v>
  <v type="int" >       40 </v>
  <v type="int" >       44 </v>
  <v type="int" >       45 </v>
  <v type="int" >       58 </v>
  <v type="int" >       55 </v>
  <v type="int" >       56 </v>
  <v type="int" >       60 </v>
  <v type="int" >       61 </v>
  <v type="int" >       64 </v>
  <v type="int" >       50 </v>
  <v type="int" >       51 </v>
  <v type="int" >       52 </v>
  <v type="int" >       80 </v>
  <v type="int" >       75 </v>
  <v type="int" >       70 </v>
  <v type="int" >       65 </v>
  <v type="int" >       67 </v>
  <v type="int" >       66 </v>
  <v type="int" >       78 </v>
  <v type="int" >       79 </v>
  <v type="int" >       72 </v>
  <v type="int" >       76 </v>
  <v type="int" >       71 </v>
  <v type="int" >       74 </v>
  <v type="int" >       77 </v>
  <v type="int" >       69 </v>
  <v type="int" >       73 </v>
  <v type="int" >       68 </v>
  <v type="int" >       81 </v>
  <v type="int" >       91 </v>
  <v type="int" >       86 </v>
  <v type="int" >       96 </v>
  <v type="int" >       95 </v>
  <v type="int" >       94 </v>
  <v type="int" >       83 </v>
  <v type="int" >       82 </v>
  <v type="int" >       85 </v>
  <v type="int" >       89 </v>
  <v type="int" >       90 </v>
  <v type="int" >       87 </v>
  <v type="int" >       84 </v>
  <v type="int" >       88 </v>
  <v type="int" >       92 </v>
  <v type="int" >       93 </v>
  <v type="int" >      100 </v>
  <v type="int" >      110 </v>
  <v type="int" >      111 </v>
  <v type="int" >      108 </v>
  <v type="int" >      104 </v>
  <v type="int" >      103 </v>
  <v type="int" >      106 </v>
  <v type="int" >      109 </v>
  <v type="int" >      112 </v>
  <v type="int" >      102 </v>
  <v type="int" >      107 </v>
  <v type="int" >      105 </v>
  <v type="int" >      101 </v>
  <v type="int" >       99 </v>
  <v type="int" >       98 </v>
  <v type="int" >       97 </v>
  <v type="int" >      113 </v>
  <v type="int" >      115 </v>
  <v type="int" >      114 </v>
  <v type="int" >      116 </v>
 </varray>
 <kpoints>
  <generation param="Gamma">
   <v type="int" name="divisions">       4        4        1 </v>
   <v name="usershift">      0.00000000       0.00000000       0.00000000 </v>
   <v name="genvec1">      0.25000000      -0.00000000       0.00000000 </v>
   <v name="genvec2">      0.00000000       0.25000000       0.00000000 </v>
   <v name="genvec3">      0.00000000       0.00000000       1.00000000 </v>
   <v name="shift">      0.00000000       0.00000000       0.00000000 </v>
  </generation>
  <varray name="kpointlist" >
   <v>       0.00000000       0.00000000       0.00000000 </v>
   <v>       0.25000000      -0.00000000       0.00000000 </v>
   <v>       0.50000000      -0.00000000       0.00000000 </v>
   <v>       0.00000000       0.25000000       0.00000000 </v>
   <v>       0.25000000       0.25000000       0.00000000 </v>
   <v>       0.50000000       0.25000000       0.00000000 </v>
   <v>      -0.25000000       0.25000000       0.00000000 </v>
   <v>       0.00000000       0.50000000       0.00000000 </v>
   <v>       0.25000000       0.50000000       0.00000000 </v>
   <v>       0.50000000       0.50000000       0.00000000 </v>
  </varray>
  <varray name="weights" >
   <v>       0.06250000 </v>
   <v>       0.12500000 </v>
   <v>       0.06250000 </v>
   <v>       0.12500000 </v>
   <v>       0.12500000 </v>
   <v>       0.12500000 </v>
   <v>       0.12500000 </v>
   <v>       0.06250000 </v>
   <v>       0.12500000 </v>
   <v>       0.06250000 </v>
  </varray>
 </kpoints>
 <parameters>
  <separator name="general" >
   <i type="string" name="SYSTEM">unknown system</i>
   <i type="logical" name="LCOMPAT"> F  </i>
  </separator>
  <separator name="electronic" >
   <i type="string" name="PREC">a</i>
   <i name="ENMAX">    500.00000000</i>
   <i name="ENAUG">    605.39200000</i>
   <i name="EDIFF">      0.00000100</i>
   <i type="int" name="IALGO">    38</i>
   <i type="int" name="IWAVPR">    10</i>
   <i type="int" name="NBANDS">   756</i>
   <i name="NELECT">   1256.00000000</i>
   <i type="int" name="TURBO">     0</i>
   <i type="int" name="IRESTART">     0</i>
   <i type="int" name="NREBOOT">     0</i>
   <i type="int" name="NMIN">     0</i>
   <i name="EREF">      0.00000000</i>
   <separator name="electronic smearing" >
    <i type="int" name="ISMEAR">     0</i>
    <i name="SIGMA">      0.05000000</i>
    <i name="KSPACING">      0.50000000</i>
    <i type="logical" name="KGAMMA"> T  </i>
   </separator>
   <separator name="electronic projectors" >
    <i type="logical" name="LREAL"> F  </i>
    <v name="ROPT">      0.00000000      0.00000000</v>
    <i type="int" name="LMAXPAW">  -100</i>
    <i type="int" name="LMAXMIX">     2</i>
    <i type="logical" name="NLSPLINE"> F  </i>
   </separator>
   <separator name="electronic startup" >
    <i type="int" name="ISTART">     0</i>
    <i type="int" name="ICHARG">     2</i>
    <i type="int" name="INIWAV">     1</i>
   </separator>
   <separator name="electronic spin" >
    <i type="int" name="ISPIN">     1</i>
    <i type="logical" name="LNONCOLLINEAR"> F  </i>
    <v name="MAGMOM">      1.00000000      1.00000000      1.00000000      1.00000000      1.00000000      1.00000000      1.00000000      1.00000000      1.00000000      1.00000000      1.00000000      1.00000000      1.00000000      1.00000000      1.00000000      1.00000000      1.00000000      1.00000000      1.00000000      1.00000000
      1.00000000      1.00000000      1.00000000      1.00000000      1.00000000      1.00000000      1.00000000      1.00000000      1.00000000      1.00000000      1.00000000      1.00000000      1.00000000      1.00000000      1.00000000      1.00000000      1.00000000      1.00000000      1.00000000      1.00000000
      1.00000000      1.00000000      1.00000000      1.00000000      1.00000000      1.00000000      1.00000000      1.00000000      1.00000000      1.00000000      1.00000000      1.00000000      1.00000000      1.00000000      1.00000000      1.00000000      1.00000000      1.00000000      1.00000000      1.00000000
      1.00000000      1.00000000      1.00000000      1.00000000      1.00000000      1.00000000      1.00000000      1.00000000      1.00000000      1.00000000      1.00000000      1.00000000      1.00000000      1.00000000      1.00000000      1.00000000      1.00000000      1.00000000      1.00000000      1.00000000
      1.00000000      1.00000000      1.00000000      1.00000000      1.00000000      1.00000000      1.00000000      1.00000000      1.00000000      1.00000000      1.00000000      1.00000000      1.00000000      1.00000000      1.00000000      1.00000000      1.00000000      1.00000000      1.00000000      1.00000000
      1.00000000      1.00000000      1.00000000      1.00000000      1.00000000      1.00000000      1.00000000      1.00000000      1.00000000      1.00000000      1.00000000      1.00000000      1.00000000      1.00000000      1.00000000      1.00000000</v>
    <i name="NUPDOWN">     -1.00000000</i>
    <i type="logical" name="LSORBIT"> F  </i>
    <v name="SAXIS">      0.00000000      0.00000000      1.00000000</v>
    <i type="logical" name="LSPIRAL"> F  </i>
    <v name="QSPIRAL">      0.00000000      0.00000000      0.00000000</v>
    <i type="logical" name="LZEROZ"> F  </i>
   </separator>
   <separator name="electronic exchange-correlation" >
    <i type="logical" name="LASPH"> F  </i>
    <i type="logical" name="LMETAGGA"> F  </i>
   </separator>
   <separator name="electronic convergence" >
    <i type="int" name="NELM">   300</i>
    <i type="int" name="NELMDL">    -5</i>
    <i type="int" name="NELMIN">     5</i>
    <i name="ENINI">    500.00000000</i>
    <separator name="electronic convergence detail" >
     <i type="logical" name="LDIAG"> T  </i>
     <i type="logical" name="LSUBROT"> F  </i>
     <i name="WEIMIN">      0.00000000</i>
     <i name="EBREAK">      0.00000000</i>
     <i name="DEPER">      0.30000000</i>
     <i type="int" name="NRMM">     4</i>
     <i name="TIME">      0.40000000</i>
    </separator>
   </separator>
   <separator name="electronic mixer" >
    <i name="AMIX">      0.40000000</i>
    <i name="BMIX">      1.00000000</i>
    <i name="AMIN">      0.10000000</i>
    <i name="AMIX_MAG">      1.60000000</i>
    <i name="BMIX_MAG">      1.00000000</i>
    <separator name="electronic mixer details" >
     <i type="int" name="IMIX">     4</i>
     <i type="logical" name="MIXFIRST"> F  </i>
     <i type="int" name="MAXMIX">   -45</i>
     <i name="WC">    100.00000000</i>
     <i type="int" name="INIMIX">     1</i>
     <i type="int" name="MIXPRE">     1</i>
     <i type="int" name="MREMOVE">     5</i>
    </separator>
   </separator>
   <separator name="electronic dipolcorrection" >
    <i type="logical" name="LDIPOL"> F  </i>
    <i type="logical" name="LMONO"> F  </i>
    <i type="int" name="IDIPOL">     0</i>
    <i name="EPSILON">      1.00000000</i>
    <v name="DIPOL">   -100.00000000   -100.00000000   -100.00000000</v>
    <i name="EFIELD">      0.00000000</i>
   </separator>
  </separator>
  <separator name="grids" >
   <i type="int" name="NGX">    80</i>
   <i type="int" name="NGY">    80</i>
   <i type="int" name="NGZ">   210</i>
   <i type="int" name="NGXF">   160</i>
   <i type="int" name="NGYF">   160</i>
   <i type="int" name="NGZF">   420</i>
   <i type="logical" name="ADDGRID"> T  </i>
  </separator>
  <separator name="ionic" >
   <i type="int" name="NSW">     0</i>
   <i type="int" name="IBRION">    -1</i>
   <i type="int" name="MDALGO">     0</i>
   <i type="int" name="ISIF">     2</i>
   <i name="PSTRESS">      0.00000000</i>
   <i name="EDIFFG">      0.00001000</i>
   <i type="int" name="NFREE">     0</i>
   <i name="POTIM">      0.50000000</i>
   <i name="SMASS">     -3.00000000</i>
   <i name="SCALEE">      1.00000000</i>
  </separator>
  <separator name="ionic md" >
   <i name="TEBEG">      0.00010000</i>
   <i name="TEEND">      0.00010000</i>
   <i type="int" name="NBLOCK">     1</i>
   <i type="int" name="KBLOCK">     1</i>
   <i type="int" name="NPACO">   256</i>
   <i name="APACO">     16.00000000</i>
  </separator>
  <separator name="symmetry" >
   <i type="int" name="ISYM">     2</i>
   <i name="SYMPREC">      0.00001000</i>
  </separator>
  <separator name="dos" >
   <i type="int" name="LORBIT">     0</i>
   <v name="RWIGS">     -1.00000000     -1.00000000</v>
   <i type="int" name="NEDOS">   301</i>
   <i name="EMIN">     10.00000000</i>
   <i name="EMAX">    -10.00000000</i>
   <i name="EFERMI">      0.00000000</i>
  </separator>
  <separator name="writing" >
   <i type="int" name="NWRITE">     2</i>
   <i type="logical" name="LWAVE"> F  </i>
   <i type="logical" name="LDOWNSAMPLE"> F  </i>
   <i type="logical" name="LCHARG"> F  </i>
   <i type="logical" name="LPARD"> F  </i>
   <i type="logical" name="LVTOT"> F  </i>
   <i type="logical" name="LVHAR"> F  </i>
   <i type="logical" name="LELF"> F  </i>
   <i type="logical" name="LOPTICS"> F  </i>
   <v name="STM">      0.00000000      0.00000000      0.00000000      0.00000000      0.00000000      0.00000000      0.00000000</v>
  </separator>
  <separator name="performance" >
   <i type="int" name="NPAR">     4</i>
   <i type="int" name="NSIM">     4</i>
   <i type="int" name="NBLK">    -1</i>
   <i type="logical" name="LPLANE"> T  </i>
   <i type="logical" name="LSCALAPACK"> F  </i>
   <i type="logical" name="LSCAAWARE"> F  </i>
   <i type="logical" name="LSCALU"> F  </i>
   <i type="logical" name="LASYNC"> F  </i>
   <i type="logical" name="LORBITALREAL"> F  </i>
  </separator>
  <separator name="miscellaneous" >
   <i type="int" name="IDIOT">     3</i>
   <i type="int" name="ISPECIAL">     0</i>
   <i type="logical" name="LMUSIC"> F  </i>
   <v name="POMASS">     63.54600000     16.00000000</v>
   <v name="DARWINR">      0.00000000      0.00000000</v>
   <v name="DARWINV">      1.00000000      1.00000000</v>
   <i type="logical" name="LCORR"> T  </i>
  </separator>
  <i type="logical" name="GGA_COMPAT"> T  </i>
  <i type="logical" name="LBERRY"> F  </i>
  <i type="int" name="ICORELEVEL">     0</i>
  <i type="logical" name="LDAU"> F  </i>
  <i type="int" name="I_CONSTRAINED_M">     0</i>
  <separator name="electronic exchange-correlation" >
   <i type="string" name="GGA">--</i>
   <i type="int" name="VOSKOWN">     0</i>
   <i type="logical" name="LHFCALC"> F  </i>
   <i type="string" name="PRECFOCK"></i>
   <i type="logical" name="LSYMGRAD"> F  </i>
   <i type="logical" name="LHFONE"> F  </i>
   <i type="logical" name="LRHFCALC"> F  </i>
   <i type="logical" name="LTHOMAS"> F  </i>
   <i type="logical" name="LMODELHF"> F  </i>
   <i name="ENCUT4O">     -1.00000000</i>
   <i type="int" name="EXXOEP">     0</i>
   <i type="int" name="FOURORBIT">     0</i>
   <i name="AEXX">      0.00000000</i>
   <i name="HFALPHA">      0.00000000</i>
   <i name="MCALPHA">      0.00000000</i>
   <i name="ALDAX">      1.00000000</i>
   <i name="AGGAX">      1.00000000</i>
   <i name="ALDAC">      1.00000000</i>
   <i name="AGGAC">      1.00000000</i>
   <i type="int" name="NKREDX">     1</i>
   <i type="int" name="NKREDY">     1</i>
   <i type="int" name="NKREDZ">     1</i>
   <i type="logical" name="SHIFTRED"> F  </i>
   <i type="logical" name="ODDONLY"> F  </i>
   <i type="logical" name="EVENONLY"> F  </i>
   <i type="int" name="LMAXFOCK">     0</i>
   <i type="int" name="NMAXFOCKAE">     0</i>
   <i type="logical" name="LFOCKAEDFT"> F  </i>
   <i name="HFSCREEN">      0.00000000</i>
   <i name="HFSCREENC">      0.00000000</i>
   <i type="int" name="NBANDSGWLOW">     0</i>
  </separator>
  <separator name="vdW DFT" >
   <i type="logical" name="LUSE_VDW"> F  </i>
   <i name="Zab_VDW">     -0.84910000</i>
   <i name="PARAM1">      0.12340000</i>
   <i name="PARAM2">      1.00000000</i>
   <i name="PARAM3">      0.00000000</i>
  </separator>
  <separator name="model GW" >
   <i type="int" name="MODEL_GW">     0</i>
   <i name="MODEL_EPS0">     13.16858037</i>
   <i name="MODEL_ALPHA">      1.00000000</i>
  </separator>
  <separator name="linear response parameters" >
   <i type="logical" name="LEPSILON"> F  </i>
   <i type="logical" name="LRPA"> F  </i>
   <i type="logical" name="LNABLA"> F  </i>
   <i type="logical" name="LVEL"> F  </i>
   <i type="int" name="KINTER">     0</i>
   <i name="CSHIFT">      0.10000000</i>
   <i name="OMEGAMAX">     -1.00000000</i>
   <i name="DEG_THRESHOLD">      0.00200000</i>
   <i name="RTIME">     -0.10000000</i>
   <i name="WPLASMAI">      0.00000000</i>
   <v name="DFIELD">      0.00000000      0.00000000      0.00000000</v>
   <v name="WPLASMA">      0.00000000      0.00000000      0.00000000      0.00000000      0.00000000      0.00000000      0.00000000      0.00000000      0.00000000</v>
  </separator>
  <separator name="orbital magnetization" >
   <i type="logical" name="NUCIND"> F  </i>
   <v name="MAGPOS">      0.00000000      0.00000000      0.00000000</v>
   <i type="logical" name="LNICSALL"> T  </i>
   <i type="logical" name="ORBITALMAG"> F  </i>
   <i type="logical" name="LMAGBLOCH"> F  </i>
   <i type="logical" name="LCHIMAG"> F  </i>
   <i type="logical" name="LGAUGE"> T  </i>
   <i type="int" name="MAGATOM">     0</i>
   <v name="MAGDIPOL">      0.00000000      0.00000000      0.00000000</v>
   <v name="AVECCONST">      0.00000000      0.00000000      0.00000000</v>
  </separator>
  <separator name="response functions" >
   <i type="logical" name="LADDER"> F  </i>
   <i type="logical" name="LRPAFORCE"> F  </i>
   <i type="logical" name="LFXC"> F  </i>
   <i type="logical" name="LHARTREE"> T  </i>
   <i type="int" name="IBSE">     0</i>
   <v type="int" name="KPOINT">    -1     0     0     0</v>
   <i type="logical" name="LTCTE"> F  </i>
   <i type="logical" name="LTETE"> F  </i>
   <i type="logical" name="LTRIPLET"> F  </i>
   <i type="logical" name="LFXCEPS"> F  </i>
   <i type="logical" name="LFXHEG"> F  </i>
   <i type="int" name="NATURALO">     2</i>
   <i type="logical" name="L2ORDER"> F  </i>
   <i type="logical" name="LMP2LT"> F  </i>
   <i type="logical" name="LUSEW"> F  </i>
   <i name="ENCUTGW">     -2.00000000</i>
   <i name="ENCUTGWSOFT">     -2.00000000</i>
   <i name="ENCUTLF">     -1.00000000</i>
   <i type="int" name="LMAXMP2">    -1</i>
   <i name="SCISSOR">      0.00000000</i>
   <i type="int" name="NOMEGA">     0</i>
   <i type="int" name="NOMEGAR">     0</i>
   <i type="int" name="NBANDSGW">    -1</i>
   <i type="int" name="NBANDSO">    -1</i>
   <i type="int" name="NBANDSV">    -1</i>
   <i type="int" name="NELM">   300</i>
   <i type="int" name="NELMHF">     1</i>
   <i type="int" name="DIM">     3</i>
   <i type="int" name="ANTIRES">     0</i>
   <i name="OMEGAMAX">    -30.00000000</i>
   <i name="OMEGAMIN">    -30.00000000</i>
   <i name="OMEGATL">   -200.00000000</i>
   <i type="int" name="OMEGAGRID">   140</i>
   <i name="CSHIFT">     -0.10000000</i>
   <i type="logical" name="SELFENERGY"> F  </i>
   <i type="logical" name="LSPECTRAL"> F  </i>
   <i type="logical" name="LSPECTRALGW"> F  </i>
   <i type="logical" name="LSINGLES"> F  </i>
   <i type="logical" name="LFERMIGW"> F  </i>
   <i type="logical" name="ODDONLYGW"> F  </i>
   <i type="logical" name="EVENONLYGW"> F  </i>
   <i type="int" name="NKREDLFX">     1</i>
   <i type="int" name="NKREDLFY">     1</i>
   <i type="int" name="NKREDLFZ">     1</i>
   <i type="int" name="MAXMEM">  2800</i>
   <i type="int" name="TELESCOPE">     0</i>
   <i type="int" name="TAUPAR">     1</i>
   <i type="int" name="OMEGAPAR">    -1</i>
   <i name="LAMBDA">      1.00000000</i>
  </separator>
  <separator name="External order field" >
   <i name="OFIELD_KAPPA">      0.00000000</i>
   <v name="OFIELD_K">      0.00000000      0.00000000      0.00000000</v>
   <i name="OFIELD_Q6_NEAR">      0.00000000</i>
   <i name="OFIELD_Q6_FAR">      0.00000000</i>
   <i name="OFIELD_A">      0.00000000</i>
  </separator>
 </parameters>
 <atominfo>
  <atoms>     116 </atoms>
  <types>       2 </types>
  <array name="atoms" >
   <dimension dim="1">ion</dimension>
   <field type="string">element</field>
   <field type="int">atomtype</field>
   <set>
    <rc><c>Cu</c><c>   1</c></rc>
    <rc><c>Cu</c><c>   1</c></rc>
    <rc><c>Cu</c><c>   1</c></rc>
    <rc><c>Cu</c><c>   1</c></rc>
    <rc><c>Cu</c><c>   1</c></rc>
    <rc><c>Cu</c><c>   1</c></rc>
    <rc><c>Cu</c><c>   1</c></rc>
    <rc><c>Cu</c><c>   1</c></rc>
    <rc><c>Cu</c><c>   1</c></rc>
    <rc><c>Cu</c><c>   1</c></rc>
    <rc><c>Cu</c><c>   1</c></rc>
    <rc><c>Cu</c><c>   1</c></rc>
    <rc><c>Cu</c><c>   1</c></rc>
    <rc><c>Cu</c><c>   1</c></rc>
    <rc><c>Cu</c><c>   1</c></rc>
    <rc><c>Cu</c><c>   1</c></rc>
    <rc><c>Cu</c><c>   1</c></rc>
    <rc><c>Cu</c><c>   1</c></rc>
    <rc><c>Cu</c><c>   1</c></rc>
    <rc><c>Cu</c><c>   1</c></rc>
    <rc><c>Cu</c><c>   1</c></rc>
    <rc><c>Cu</c><c>   1</c></rc>
    <rc><c>Cu</c><c>   1</c></rc>
    <rc><c>Cu</c><c>   1</c></rc>
    <rc><c>Cu</c><c>   1</c></rc>
    <rc><c>Cu</c><c>   1</c></rc>
    <rc><c>Cu</c><c>   1</c></rc>
    <rc><c>Cu</c><c>   1</c></rc>
    <rc><c>Cu</c><c>   1</c></rc>
    <rc><c>Cu</c><c>   1</c></rc>
    <rc><c>Cu</c><c>   1</c></rc>
    <rc><c>Cu</c><c>   1</c></rc>
    <rc><c>Cu</c><c>   1</c></rc>
    <rc><c>Cu</c><c>   1</c></rc>
    <rc><c>Cu</c><c>   1</c></rc>
    <rc><c>Cu</c><c>   1</c></rc>
    <rc><c>Cu</c><c>   1</c></rc>
    <rc><c>Cu</c><c>   1</c></rc>
    <rc><c>Cu</c><c>   1</c></rc>
    <rc><c>Cu</c><c>   1</c></rc>
    <rc><c>Cu</c><c>   1</c></rc>
    <rc><c>Cu</c><c>   1</c></rc>
    <rc><c>Cu</c><c>   1</c></rc>
    <rc><c>Cu</c><c>   1</c></rc>
    <rc><c>Cu</c><c>   1</c></rc>
    <rc><c>Cu</c><c>   1</c></rc>
    <rc><c>Cu</c><c>   1</c></rc>
    <rc><c>Cu</c><c>   1</c></rc>
    <rc><c>Cu</c><c>   1</c></rc>
    <rc><c>Cu</c><c>   1</c></rc>
    <rc><c>Cu</c><c>   1</c></rc>
    <rc><c>Cu</c><c>   1</c></rc>
    <rc><c>Cu</c><c>   1</c></rc>
    <rc><c>Cu</c><c>   1</c></rc>
    <rc><c>Cu</c><c>   1</c></rc>
    <rc><c>Cu</c><c>   1</c></rc>
    <rc><c>Cu</c><c>   1</c></rc>
    <rc><c>Cu</c><c>   1</c></rc>
    <rc><c>Cu</c><c>   1</c></rc>
    <rc><c>Cu</c><c>   1</c></rc>
    <rc><c>Cu</c><c>   1</c></rc>
    <rc><c>Cu</c><c>   1</c></rc>
    <rc><c>Cu</c><c>   1</c></rc>
    <rc><c>Cu</c><c>   1</c></rc>
    <rc><c>Cu</c><c>   1</c></rc>
    <rc><c>Cu</c><c>   1</c></rc>
    <rc><c>Cu</c><c>   1</c></rc>
    <rc><c>Cu</c><c>   1</c></rc>
    <rc><c>Cu</c><c>   1</c></rc>
    <rc><c>Cu</c><c>   1</c></rc>
    <rc><c>Cu</c><c>   1</c></rc>
    <rc><c>Cu</c><c>   1</c></rc>
    <rc><c>Cu</c><c>   1</c></rc>
    <rc><c>Cu</c><c>   1</c></rc>
    <rc><c>Cu</c><c>   1</c></rc>
    <rc><c>Cu</c><c>   1</c></rc>
    <rc><c>Cu</c><c>   1</c></rc>
    <rc><c>Cu</c><c>   1</c></rc>
    <rc><c>Cu</c><c>   1</c></rc>
    <rc><c>Cu</c><c>   1</c></rc>
    <rc><c>Cu</c><c>   1</c></rc>
    <rc><c>Cu</c><c>   1</c></rc>
    <rc><c>Cu</c><c>   1</c></rc>
    <rc><c>Cu</c><c>   1</c></rc>
    <rc><c>Cu</c><c>   1</c></rc>
    <rc><c>Cu</c><c>   1</c></rc>
    <rc><c>Cu</c><c>   1</c></rc>
    <rc><c>Cu</c><c>   1</c></rc>
    <rc><c>Cu</c><c>   1</c></rc>
    <rc><c>Cu</c><c>   1</c></rc>
    <rc><c>Cu</c><c>   1</c></rc>
    <rc><c>Cu</c><c>   1</c></rc>
    <rc><c>Cu</c><c>   1</c></rc>
    <rc><c>Cu</c><c>   1</c></rc>
    <rc><c>Cu</c><c>   1</c></rc>
    <rc><c>Cu</c><c>   1</c></rc>
    <rc><c>Cu</c><c>   1</c></rc>
    <rc><c>Cu</c><c>   1</c></rc>
    <rc><c>Cu</c><c>   1</c></rc>
    <rc><c>Cu</c><c>   1</c></rc>
    <rc><c>Cu</c><c>   1</c></rc>
    <rc><c>Cu</c><c>   1</c></rc>
    <rc><c>Cu</c><c>   1</c></rc>
    <rc><c>Cu</c><c>   1</c></rc>
    <rc><c>Cu</c><c>   1</c></rc>
    <rc><c>Cu</c><c>   1</c></rc>
    <rc><c>Cu</c><c>   1</c></rc>
    <rc><c>Cu</c><c>   1</c></rc>
    <rc><c>Cu</c><c>   1</c></rc>
    <rc><c>Cu</c><c>   1</c></rc>
    <rc><c>Cu</c><c>   1</c></rc>
    <rc><c>Cu</c><c>   1</c></rc>
    <rc><c>O </c><c>   2</c></rc>
    <rc><c>O </c><c>   2</c></rc>
    <rc><c>O </c><c>   2</c></rc>
    <rc><c>O </c><c>   2</c></rc>
   </set>
  </array>
  <array name="atomtypes" >
   <dimension dim="1">type</dimension>
   <field type="int">atomspertype</field>
   <field type="string">element</field>
   <field>mass</field>
   <field>valence</field>
   <field type="string">pseudopotential</field>
   <set>
    <rc><c> 112</c><c>Cu</c><c>     63.54600000</c><c>     11.00000000</c><c> PAW_PBE Cu 05Jan2001                   </c></rc>
    <rc><c>   4</c><c>O </c><c>     16.00000000</c><c>      6.00000000</c><c> PAW_PBE O 08Apr2002                    </c></rc>
   </set>
  </array>
 </atominfo>
 <structure name="initialpos" >
  <crystal>
   <varray name="basis" >
    <v>      10.28518105       0.00000000       0.00000000 </v>
    <v>       5.14259052       8.90722807       0.00000000 </v>
    <v>       0.00000000       0.00000000      27.79016876 </v>
   </varray>
   <i name="volume">   2545.92553775 </i>
   <varray name="rec_basis" >
    <v>       0.09722726      -0.05613419       0.00000000 </v>
    <v>       0.00000000       0.11226837       0.00000000 </v>
    <v>       0.00000000       0.00000000       0.03598395 </v>
   </varray>
  </crystal>
  <varray name="positions" >
   <v>       0.00000000       0.00000000       0.22663990 </v>
   <v>       0.00000000       0.50000000       0.22663990 </v>
   <v>       0.50000000       0.00000000       0.22663990 </v>
   <v>       0.50000000       0.50000000       0.22663990 </v>
   <v>       0.00000000       0.25000000       0.22663990 </v>
   <v>       0.00000000       0.75000000       0.22663990 </v>
   <v>       0.50000000       0.25000000       0.22663990 </v>
   <v>       0.50000000       0.75000000       0.22663990 </v>
   <v>       0.25000000       0.00000000       0.22663990 </v>
   <v>       0.25000000       0.50000000       0.22663990 </v>
   <v>       0.75000000       0.00000000       0.22663990 </v>
   <v>       0.75000000       0.50000000       0.22663990 </v>
   <v>       0.25000000       0.25000000       0.22663990 </v>
   <v>       0.25000000       0.75000000       0.22663990 </v>
   <v>       0.75000000       0.25000000       0.22663990 </v>
   <v>       0.75000000       0.75000000       0.22663990 </v>
   <v>       0.16666666       0.16666666       0.30218653 </v>
   <v>       0.16666666       0.66666666       0.30218653 </v>
   <v>       0.66666666       0.16666666       0.30218653 </v>
   <v>       0.66666666       0.66666666       0.30218653 </v>
   <v>       0.16666666       0.41666666       0.30218653 </v>
   <v>       0.16666666       0.91666666       0.30218653 </v>
   <v>       0.66666666       0.41666666       0.30218653 </v>
   <v>       0.66666666       0.91666666       0.30218653 </v>
   <v>       0.41666666       0.16666666       0.30218653 </v>
   <v>       0.41666666       0.66666666       0.30218653 </v>
   <v>       0.91666666       0.16666666       0.30218653 </v>
   <v>       0.91666666       0.66666666       0.30218653 </v>
   <v>       0.41666666       0.41666666       0.30218653 </v>
   <v>       0.41666666       0.91666666       0.30218653 </v>
   <v>       0.91666666       0.41666666       0.30218653 </v>
   <v>       0.91666666       0.91666666       0.30218653 </v>
   <v>       0.08333333       0.08333333       0.37716320 </v>
   <v>       0.08333333       0.58333333       0.37716320 </v>
   <v>       0.58333333       0.08333333       0.37716320 </v>
   <v>       0.58333333       0.58333333       0.37716320 </v>
   <v>       0.08351614       0.33324190       0.37729758 </v>
   <v>       0.08351614       0.83324190       0.37729758 </v>
   <v>       0.58351614       0.33324190       0.37729758 </v>
   <v>       0.58351614       0.83324190       0.37729758 </v>
   <v>       0.33324190       0.08351614       0.37729758 </v>
   <v>       0.33324190       0.58351614       0.37729758 </v>
   <v>       0.83324190       0.08351614       0.37729758 </v>
   <v>       0.83324190       0.58351614       0.37729758 </v>
   <v>       0.33324190       0.33324190       0.37729758 </v>
   <v>       0.33324190       0.83324190       0.37729758 </v>
   <v>       0.83324190       0.33324190       0.37729758 </v>
   <v>       0.83324190       0.83324190       0.37729758 </v>
   <v>       0.00012997       0.00012997       0.45242342 </v>
   <v>       0.00012997       0.50012997       0.45242342 </v>
   <v>       0.50012997       0.00012997       0.45242342 </v>
   <v>       0.50012997       0.50012997       0.45242342 </v>
   <v>       0.00012997       0.24974005       0.45242342 </v>
   <v>       0.00012997       0.74974005       0.45242342 </v>
   <v>       0.50012997       0.24974005       0.45242342 </v>
   <v>       0.50012997       0.74974005       0.45242342 </v>
   <v>       0.24974005       0.00012997       0.45242342 </v>
   <v>       0.24974005       0.50012997       0.45242342 </v>
   <v>       0.74974005       0.00012997       0.45242342 </v>
   <v>       0.74974005       0.50012997       0.45242342 </v>
   <v>       0.25000000       0.25000000       0.45288750 </v>
   <v>       0.25000000       0.75000000       0.45288750 </v>
   <v>       0.75000000       0.25000000       0.45288750 </v>
   <v>       0.75000000       0.75000000       0.45288750 </v>
   <v>       0.16660598       0.16660598       0.52813907 </v>
   <v>       0.16660598       0.66660598       0.52813907 </v>
   <v>       0.66660598       0.16660598       0.52813907 </v>
   <v>       0.66660598       0.66660598       0.52813907 </v>
   <v>       0.16660598       0.41678801       0.52813907 </v>
   <v>       0.16660598       0.91678801       0.52813907 </v>
   <v>       0.66660598       0.41678801       0.52813907 </v>
   <v>       0.66660598       0.91678801       0.52813907 </v>
   <v>       0.41678801       0.16660598       0.52813907 </v>
   <v>       0.41678801       0.66660598       0.52813907 </v>
   <v>       0.91678801       0.16660598       0.52813907 </v>
   <v>       0.91678801       0.66660598       0.52813907 </v>
   <v>       0.41666666       0.41666666       0.52741939 </v>
   <v>       0.41666666       0.91666666       0.52741939 </v>
   <v>       0.91666666       0.41666666       0.52741939 </v>
   <v>       0.91666666       0.91666666       0.52741939 </v>
   <v>       0.08333333       0.08333333       0.60253339 </v>
   <v>       0.08333333       0.58333333       0.60253339 </v>
   <v>       0.58333333       0.08333333       0.60253339 </v>
   <v>       0.58333333       0.58333333       0.60253339 </v>
   <v>       0.08130935       0.33434529       0.60320464 </v>
   <v>       0.08130935       0.83434529       0.60320464 </v>
   <v>       0.58130935       0.33434529       0.60320464 </v>
   <v>       0.58130935       0.83434529       0.60320464 </v>
   <v>       0.33434529       0.08130935       0.60320464 </v>
   <v>       0.33434529       0.58130935       0.60320464 </v>
   <v>       0.83434529       0.08130935       0.60320464 </v>
   <v>       0.83434529       0.58130935       0.60320464 </v>
   <v>       0.33434529       0.33434529       0.60320464 </v>
   <v>       0.33434529       0.83434529       0.60320464 </v>
   <v>       0.83434529       0.33434529       0.60320464 </v>
   <v>       0.83434529       0.83434529       0.60320464 </v>
   <v>       0.49577148       0.49714648       0.68006359 </v>
   <v>       0.49714648       0.99714648       0.68057248 </v>
   <v>       0.99714648       0.49714648       0.68057248 </v>
   <v>       0.99714648       0.99714648       0.68057248 </v>
   <v>       0.49714648       0.25570704       0.68057248 </v>
   <v>       0.49714648       0.75570704       0.68057248 </v>
   <v>       0.99714648       0.25570704       0.68057248 </v>
   <v>       0.99714648       0.75570704       0.68057248 </v>
   <v>       0.25570704       0.49714648       0.68057248 </v>
   <v>       0.25570704       0.99714648       0.68057248 </v>
   <v>       0.75570704       0.49714648       0.68057248 </v>
   <v>       0.75570704       0.99714648       0.68057248 </v>
   <v>       0.25000000       0.25000000       0.67480871 </v>
   <v>       0.25000000       0.75000000       0.67480871 </v>
   <v>       0.75000000       0.25000000       0.67480871 </v>
   <v>       0.75000000       0.75000000       0.67480871 </v>
   <v>       0.08333333       0.08333333       0.72043888 </v>
   <v>       0.08333333       0.58333333       0.72043888 </v>
   <v>       0.58333333       0.08333333       0.72043888 </v>
   <v>       0.58333333       0.58333333       0.72043888 </v>
  </varray>
 </structure>
 <calculation>
  <scstep>
   <time name="dav">  165.73  166.03</time>
   <time name="total">  166.33  166.65</time>
   <energy>
    <i name="alphaZ">   6463.29446255 </i>
    <i name="ewald"> 664655.82170255 </i>
    <i name="hartreedc">-815410.69319011 </i>
    <i name="XCdc">   5009.43241147 </i>
    <i name="pawpsdc"> 122173.85035501 </i>
    <i name="pawaedc">-138312.01710912 </i>
    <i name="eentropy">     -0.02889158 </i>
    <i name="bandstr">   8852.71405506 </i>
    <i name="atom"> 157518.83071590 </i>
    <i name="e_fr_energy">  10951.20451173 </i>
    <i name="e_wo_entrp">  10951.23340331 </i>
    <i name="e_0_energy">  10951.21895752 </i>
   </energy>
  </scstep>
  <scstep>
   <time name="dav">  164.14  164.48</time>
   <time name="total">  164.17  164.50</time>
   <energy>
    <i name="e_fr_energy">   1074.00012275 </i>
    <i name="e_wo_entrp">   1074.04476151 </i>
    <i name="e_0_energy">   1074.02244213 </i>
   </energy>
  </scstep>
  <scstep>
   <time name="dav">  166.85  167.12</time>
   <time name="total">  166.87  167.15</time>
   <energy>
    <i name="e_fr_energy">   -373.54392101 </i>
    <i name="e_wo_entrp">   -373.47853037 </i>
    <i name="e_0_energy">   -373.51122569 </i>
   </energy>
  </scstep>
  <scstep>
   <time name="dav">  178.64  178.89</time>
   <time name="total">  178.67  178.91</time>
   <energy>
    <i name="e_fr_energy">   -524.79841725 </i>
    <i name="e_wo_entrp">   -524.73509472 </i>
    <i name="e_0_energy">   -524.76675598 </i>
   </energy>
  </scstep>
  <scstep>
   <time name="dav">  161.90  162.12</time>
   <time name="total">  166.51  166.73</time>
   <energy>
    <i name="e_fr_energy">   -530.87867407 </i>
    <i name="e_wo_entrp">   -530.81526430 </i>
    <i name="e_0_energy">   -530.84696919 </i>
   </energy>
  </scstep>
  <scstep>
   <time name="dav">  167.92  168.24</time>
   <time name="total">  172.98  173.33</time>
   <energy>
    <i name="e_fr_energy">   -478.23304545 </i>
    <i name="e_wo_entrp">   -478.17651544 </i>
    <i name="e_0_energy">   -478.20478044 </i>
   </energy>
  </scstep>
  <scstep>
   <time name="dav">  177.88  178.21</time>
   <time name="total">  182.91  183.25</time>
   <energy>
    <i name="e_fr_energy">   -513.44715585 </i>
    <i name="e_wo_entrp">   -513.31572073 </i>
    <i name="e_0_energy">   -513.38143829 </i>
   </energy>
  </scstep>
  <scstep>
   <time name="dav">  196.60  196.87</time>
   <time name="total">  202.98  203.30</time>
   <energy>
    <i name="e_fr_energy">   -445.53384335 </i>
    <i name="e_wo_entrp">   -445.44902047 </i>
    <i name="e_0_energy">   -445.49143191 </i>
   </energy>
  </scstep>
  <scstep>
   <time name="dav">  198.75  199.08</time>
   <time name="total">  203.79  204.12</time>
   <energy>
    <i name="e_fr_energy">   -428.67468741 </i>
    <i name="e_wo_entrp">   -428.63627717 </i>
    <i name="e_0_energy">   -428.65548229 </i>
   </energy>
  </scstep>
  <scstep>
   <time name="dav">  176.34  176.57</time>
   <time name="total">  181.30  181.56</time>
   <energy>
    <i name="e_fr_energy">   -429.35320607 </i>
    <i name="e_wo_entrp">   -429.30008435 </i>
    <i name="e_0_energy">   -429.32664521 </i>
   </energy>
  </scstep>
  <scstep>
   <time name="dav">  166.80  167.00</time>
   <time name="total">  171.83  172.03</time>
   <energy>
    <i name="e_fr_energy">   -427.96479362 </i>
    <i name="e_wo_entrp">   -427.89871075 </i>
    <i name="e_0_energy">   -427.93175219 </i>
   </energy>
  </scstep>
  <scstep>
   <time name="dav">  185.99  186.33</time>
   <time name="total">  190.97  191.35</time>
   <energy>
    <i name="e_fr_energy">   -427.69604675 </i>
    <i name="e_wo_entrp">   -427.64097893 </i>
    <i name="e_0_energy">   -427.66851284 </i>
   </energy>
  </scstep>
  <scstep>
   <time name="dav">  166.40  166.62</time>
   <time name="total">  171.35  172.39</time>
   <energy>
    <i name="e_fr_energy">   -427.64607836 </i>
    <i name="e_wo_entrp">   -427.59124617 </i>
    <i name="e_0_energy">   -427.61866227 </i>
   </energy>
  </scstep>
  <scstep>
   <time name="dav">  176.47  176.78</time>
   <time name="total">  184.03  184.36</time>
   <energy>
    <i name="e_fr_energy">   -427.54191432 </i>
    <i name="e_wo_entrp">   -427.49277724 </i>
    <i name="e_0_energy">   -427.51734578 </i>
   </energy>
  </scstep>
  <scstep>
   <time name="dav">  171.60  171.82</time>
   <time name="total">  176.93  177.16</time>
   <energy>
    <i name="e_fr_energy">   -427.61644835 </i>
    <i name="e_wo_entrp">   -427.56819100 </i>
    <i name="e_0_energy">   -427.59231967 </i>
   </energy>
  </scstep>
  <scstep>
   <time name="dav">  165.51  165.76</time>
   <time name="total">  171.39  171.64</time>
   <energy>
    <i name="e_fr_energy">   -427.51454921 </i>
    <i name="e_wo_entrp">   -427.46507699 </i>
    <i name="e_0_energy">   -427.48981310 </i>
   </energy>
  </scstep>
  <scstep>
   <time name="dav">  172.00  172.33</time>
   <time name="total">  176.99  177.33</time>
   <energy>
    <i name="e_fr_energy">   -427.47912140 </i>
    <i name="e_wo_entrp">   -427.42806501 </i>
    <i name="e_0_energy">   -427.45359320 </i>
   </energy>
  </scstep>
  <scstep>
   <time name="dav">  185.14  185.35</time>
   <time name="total">  190.12  190.34</time>
   <energy>
    <i name="e_fr_energy">   -427.46443645 </i>
    <i name="e_wo_entrp">   -427.41199565 </i>
    <i name="e_0_energy">   -427.43821605 </i>
   </energy>
  </scstep>
  <scstep>
   <time name="dav">  175.11  175.31</time>
   <time name="total">  180.10  180.30</time>
   <energy>
    <i name="e_fr_energy">   -427.46406060 </i>
    <i name="e_wo_entrp">   -427.41102052 </i>
    <i name="e_0_energy">   -427.43754056 </i>
   </energy>
  </scstep>
  <scstep>
   <time name="dav">  161.22  161.40</time>
   <time name="total">  166.21  166.40</time>
   <energy>
    <i name="e_fr_energy">   -427.46469800 </i>
    <i name="e_wo_entrp">   -427.41153175 </i>
    <i name="e_0_energy">   -427.43811488 </i>
   </energy>
  </scstep>
  <scstep>
   <time name="dav">  161.19  161.40</time>
   <time name="total">  167.37  167.59</time>
   <energy>
    <i name="e_fr_energy">   -427.46478363 </i>
    <i name="e_wo_entrp">   -427.41128643 </i>
    <i name="e_0_energy">   -427.43803503 </i>
   </energy>
  </scstep>
  <scstep>
   <time name="dav">  167.89  168.08</time>
   <time name="total">  172.88  173.07</time>
   <energy>
    <i name="e_fr_energy">   -427.46512666 </i>
    <i name="e_wo_entrp">   -427.41172834 </i>
    <i name="e_0_energy">   -427.43842750 </i>
   </energy>
  </scstep>
  <scstep>
   <time name="dav">  161.47  161.66</time>
   <time name="total">  166.42  166.65</time>
   <energy>
    <i name="e_fr_energy">   -427.46506788 </i>
    <i name="e_wo_entrp">   -427.41180646 </i>
    <i name="e_0_energy">   -427.43843717 </i>
   </energy>
  </scstep>
  <scstep>
   <time name="dav">  163.64  163.94</time>
   <time name="total">  168.61  168.92</time>
   <energy>
    <i name="e_fr_energy">   -427.46520457 </i>
    <i name="e_wo_entrp">   -427.41194083 </i>
    <i name="e_0_energy">   -427.43857270 </i>
   </energy>
  </scstep>
  <scstep>
   <time name="dav">  214.21  215.65</time>
   <time name="total">  219.23  220.67</time>
   <energy>
    <i name="e_fr_energy">   -427.46537427 </i>
    <i name="e_wo_entrp">   -427.41214212 </i>
    <i name="e_0_energy">   -427.43875819 </i>
   </energy>
  </scstep>
  <scstep>
   <time name="dav">  178.64  178.89</time>
   <time name="total">  183.63  183.88</time>
   <energy>
    <i name="e_fr_energy">   -427.46559665 </i>
    <i name="e_wo_entrp">   -427.41235054 </i>
    <i name="e_0_energy">   -427.43897360 </i>
   </energy>
  </scstep>
  <scstep>
   <time name="dav">  153.66  153.86</time>
   <time name="total">  158.65  158.85</time>
   <energy>
    <i name="e_fr_energy">   -427.46585827 </i>
    <i name="e_wo_entrp">   -427.41261991 </i>
    <i name="e_0_energy">   -427.43923909 </i>
   </energy>
  </scstep>
  <scstep>
   <time name="dav">  153.06  153.26</time>
   <time name="total">  160.01  160.22</time>
   <energy>
    <i name="e_fr_energy">   -427.46603875 </i>
    <i name="e_wo_entrp">   -427.41282251 </i>
    <i name="e_0_energy">   -427.43943063 </i>
   </energy>
  </scstep>
  <scstep>
   <time name="dav">  152.96  153.18</time>
   <time name="total">  157.98  158.21</time>
   <energy>
    <i name="e_fr_energy">   -427.46618650 </i>
    <i name="e_wo_entrp">   -427.41298751 </i>
    <i name="e_0_energy">   -427.43958701 </i>
   </energy>
  </scstep>
  <scstep>
   <time name="dav">  154.14  154.40</time>
   <time name="total">  159.13  159.45</time>
   <energy>
    <i name="e_fr_energy">   -427.46630188 </i>
    <i name="e_wo_entrp">   -427.41309903 </i>
    <i name="e_0_energy">   -427.43970045 </i>
   </energy>
  </scstep>
  <scstep>
   <time name="dav">  157.79  158.07</time>
   <time name="total">  162.77  163.07</time>
   <energy>
    <i name="e_fr_energy">   -427.46639732 </i>
    <i name="e_wo_entrp">   -427.41317419 </i>
    <i name="e_0_energy">   -427.43978575 </i>
   </energy>
  </scstep>
  <scstep>
   <time name="dav">  152.23  152.55</time>
   <time name="total">  157.24  157.56</time>
   <energy>
    <i name="e_fr_energy">   -427.46645268 </i>
    <i name="e_wo_entrp">   -427.41321811 </i>
    <i name="e_0_energy">   -427.43983540 </i>
   </energy>
  </scstep>
  <scstep>
   <time name="dav">  127.95  128.12</time>
   <time name="total">  132.94  133.12</time>
   <energy>
    <i name="e_fr_energy">   -427.46647535 </i>
    <i name="e_wo_entrp">   -427.41324203 </i>
    <i name="e_0_energy">   -427.43985869 </i>
   </energy>
  </scstep>
  <scstep>
   <time name="dav">  118.50  118.66</time>
   <time name="total">  123.51  123.68</time>
   <energy>
    <i name="e_fr_energy">   -427.46650048 </i>
    <i name="e_wo_entrp">   -427.41327742 </i>
    <i name="e_0_energy">   -427.43988895 </i>
   </energy>
  </scstep>
  <scstep>
   <time name="dav">  115.51  115.66</time>
   <time name="total">  120.52  120.68</time>
   <energy>
    <i name="e_fr_energy">   -427.46651485 </i>
    <i name="e_wo_entrp">   -427.41329293 </i>
    <i name="e_0_energy">   -427.43990389 </i>
   </energy>
  </scstep>
  <scstep>
   <time name="dav">  113.39  113.58</time>
   <time name="total">  118.53  118.72</time>
   <energy>
    <i name="e_fr_energy">   -427.46652541 </i>
    <i name="e_wo_entrp">   -427.41330477 </i>
    <i name="e_0_energy">   -427.43991509 </i>
   </energy>
  </scstep>
  <scstep>
   <time name="dav">  112.57  112.71</time>
   <time name="total">  117.57  117.72</time>
   <energy>
    <i name="e_fr_energy">   -427.46653356 </i>
    <i name="e_wo_entrp">   -427.41331264 </i>
    <i name="e_0_energy">   -427.43992310 </i>
   </energy>
  </scstep>
  <scstep>
   <time name="dav">  111.59  111.74</time>
   <time name="total">  116.61  116.76</time>
   <energy>
    <i name="e_fr_energy">   -427.46653628 </i>
    <i name="e_wo_entrp">   -427.41331456 </i>
    <i name="e_0_energy">   -427.43992542 </i>
   </energy>
  </scstep>
  <scstep>
   <time name="dav">  149.71  149.88</time>
   <time name="total">  154.81  154.99</time>
   <energy>
    <i name="e_fr_energy">   -427.46653823 </i>
    <i name="e_wo_entrp">   -427.41331568 </i>
    <i name="e_0_energy">   -427.43992695 </i>
   </energy>
  </scstep>
  <scstep>
   <time name="dav">  108.95  109.12</time>
   <time name="total">  109.45  109.62</time>
   <energy>
    <i name="alphaZ">   6463.29446255 </i>
    <i name="ewald"> 664655.82170255 </i>
    <i name="hartreedc">-813445.81066814 </i>
    <i name="XCdc">   4896.82730499 </i>
    <i name="pawpsdc"> 123759.60694166 </i>
    <i name="pawaedc">-139976.65442123 </i>
    <i name="eentropy">     -0.05322251 </i>
    <i name="bandstr">  -4299.32935481 </i>
    <i name="atom"> 157518.83071590 </i>
    <i name="e_fr_energy">   -427.46653904 </i>
    <i name="e_wo_entrp">   -427.41331653 </i>
    <i name="e_0_energy">   -427.43992779 </i>
   </energy>
  </scstep>
  <structure>
   <crystal>
    <varray name="basis" >
     <v>      10.28518105       0.00000000       0.00000000 </v>
     <v>       5.14259052       8.90722807       0.00000000 </v>
     <v>       0.00000000       0.00000000      27.79016876 </v>
    </varray>
    <i name="volume">   2545.92553775 </i>
    <varray name="rec_basis" >
     <v>       0.09722726      -0.05613419       0.00000000 </v>
     <v>       0.00000000       0.11226837       0.00000000 </v>
     <v>       0.00000000       0.00000000       0.03598395 </v>
    </varray>
   </crystal>
   <varray name="positions" >
    <v>       0.00000000       0.00000000       0.22663990 </v>
    <v>       0.00000000       0.50000000       0.22663990 </v>
    <v>       0.50000000       0.00000000       0.22663990 </v>
    <v>       0.50000000       0.50000000       0.22663990 </v>
    <v>       0.00000000       0.25000000       0.22663990 </v>
    <v>       0.00000000       0.75000000       0.22663990 </v>
    <v>       0.50000000       0.25000000       0.22663990 </v>
    <v>       0.50000000       0.75000000       0.22663990 </v>
    <v>       0.25000000       0.00000000       0.22663990 </v>
    <v>       0.25000000       0.50000000       0.22663990 </v>
    <v>       0.75000000       0.00000000       0.22663990 </v>
    <v>       0.75000000       0.50000000       0.22663990 </v>
    <v>       0.25000000       0.25000000       0.22663990 </v>
    <v>       0.25000000       0.75000000       0.22663990 </v>
    <v>       0.75000000       0.25000000       0.22663990 </v>
    <v>       0.75000000       0.75000000       0.22663990 </v>
    <v>       0.16666666       0.16666666       0.30218653 </v>
    <v>       0.16666666       0.66666666       0.30218653 </v>
    <v>       0.66666666       0.16666666       0.30218653 </v>
    <v>       0.66666666       0.66666666       0.30218653 </v>
    <v>       0.16666666       0.41666666       0.30218653 </v>
    <v>       0.16666666       0.91666666       0.30218653 </v>
    <v>       0.66666666       0.41666666       0.30218653 </v>
    <v>       0.66666666       0.91666666       0.30218653 </v>
    <v>       0.41666666       0.16666666       0.30218653 </v>
    <v>       0.41666666       0.66666666       0.30218653 </v>
    <v>       0.91666666       0.16666666       0.30218653 </v>
    <v>       0.91666666       0.66666666       0.30218653 </v>
    <v>       0.41666666       0.41666666       0.30218653 </v>
    <v>       0.41666666       0.91666666       0.30218653 </v>
    <v>       0.91666666       0.41666666       0.30218653 </v>
    <v>       0.91666666       0.91666666       0.30218653 </v>
    <v>       0.08333333       0.08333333       0.37716320 </v>
    <v>       0.08333333       0.58333333       0.37716320 </v>
    <v>       0.58333333       0.08333333       0.37716320 </v>
    <v>       0.58333333       0.58333333       0.37716320 </v>
    <v>       0.08351614       0.33324190       0.37729758 </v>
    <v>       0.08351614       0.83324190       0.37729758 </v>
    <v>       0.58351614       0.33324190       0.37729758 </v>
    <v>       0.58351614       0.83324190       0.37729758 </v>
    <v>       0.33324190       0.08351614       0.37729758 </v>
    <v>       0.33324190       0.58351614       0.37729758 </v>
    <v>       0.83324190       0.08351614       0.37729758 </v>
    <v>       0.83324190       0.58351614       0.37729758 </v>
    <v>       0.33324190       0.33324190       0.37729758 </v>
    <v>       0.33324190       0.83324190       0.37729758 </v>
    <v>       0.83324190       0.33324190       0.37729758 </v>
    <v>       0.83324190       0.83324190       0.37729758 </v>
    <v>       0.00012997       0.00012997       0.45242342 </v>
    <v>       0.00012997       0.50012997       0.45242342 </v>
    <v>       0.50012997       0.00012997       0.45242342 </v>
    <v>       0.50012997       0.50012997       0.45242342 </v>
    <v>       0.00012997       0.24974005       0.45242342 </v>
    <v>       0.00012997       0.74974005       0.45242342 </v>
    <v>       0.50012997       0.24974005       0.45242342 </v>
    <v>       0.50012997       0.74974005       0.45242342 </v>
    <v>       0.24974005       0.00012997       0.45242342 </v>
    <v>       0.24974005       0.50012997       0.45242342 </v>
    <v>       0.74974005       0.00012997       0.45242342 </v>
    <v>       0.74974005       0.50012997       0.45242342 </v>
    <v>       0.25000000       0.25000000       0.45288750 </v>
    <v>       0.25000000       0.75000000       0.45288750 </v>
    <v>       0.75000000       0.25000000       0.45288750 </v>
    <v>       0.75000000       0.75000000       0.45288750 </v>
    <v>       0.16660598       0.16660598       0.52813907 </v>
    <v>       0.16660598       0.66660598       0.52813907 </v>
    <v>       0.66660598       0.16660598       0.52813907 </v>
    <v>       0.66660598       0.66660598       0.52813907 </v>
    <v>       0.16660598       0.41678801       0.52813907 </v>
    <v>       0.16660598       0.91678801       0.52813907 </v>
    <v>       0.66660598       0.41678801       0.52813907 </v>
    <v>       0.66660598       0.91678801       0.52813907 </v>
    <v>       0.41678801       0.16660598       0.52813907 </v>
    <v>       0.41678801       0.66660598       0.52813907 </v>
    <v>       0.91678801       0.16660598       0.52813907 </v>
    <v>       0.91678801       0.66660598       0.52813907 </v>
    <v>       0.41666666       0.41666666       0.52741939 </v>
    <v>       0.41666666       0.91666666       0.52741939 </v>
    <v>       0.91666666       0.41666666       0.52741939 </v>
    <v>       0.91666666       0.91666666       0.52741939 </v>
    <v>       0.08333333       0.08333333       0.60253339 </v>
    <v>       0.08333333       0.58333333       0.60253339 </v>
    <v>       0.58333333       0.08333333       0.60253339 </v>
    <v>       0.58333333       0.58333333       0.60253339 </v>
    <v>       0.08130935       0.33434529       0.60320464 </v>
    <v>       0.08130935       0.83434529       0.60320464 </v>
    <v>       0.58130935       0.33434529       0.60320464 </v>
    <v>       0.58130935       0.83434529       0.60320464 </v>
    <v>       0.33434529       0.08130935       0.60320464 </v>
    <v>       0.33434529       0.58130935       0.60320464 </v>
    <v>       0.83434529       0.08130935       0.60320464 </v>
    <v>       0.83434529       0.58130935       0.60320464 </v>
    <v>       0.33434529       0.33434529       0.60320464 </v>
    <v>       0.33434529       0.83434529       0.60320464 </v>
    <v>       0.83434529       0.33434529       0.60320464 </v>
    <v>       0.83434529       0.83434529       0.60320464 </v>
    <v>       0.49577148       0.49714648       0.68006359 </v>
    <v>       0.49714648       0.99714648       0.68057248 </v>
    <v>       0.99714648       0.49714648       0.68057248 </v>
    <v>       0.99714648       0.99714648       0.68057248 </v>
    <v>       0.49714648       0.25570704       0.68057248 </v>
    <v>       0.49714648       0.75570704       0.68057248 </v>
    <v>       0.99714648       0.25570704       0.68057248 </v>
    <v>       0.99714648       0.75570704       0.68057248 </v>
    <v>       0.25570704       0.49714648       0.68057248 </v>
    <v>       0.25570704       0.99714648       0.68057248 </v>
    <v>       0.75570704       0.49714648       0.68057248 </v>
    <v>       0.75570704       0.99714648       0.68057248 </v>
    <v>       0.25000000       0.25000000       0.67480871 </v>
    <v>       0.25000000       0.75000000       0.67480871 </v>
    <v>       0.75000000       0.25000000       0.67480871 </v>
    <v>       0.75000000       0.75000000       0.67480871 </v>
    <v>       0.08333333       0.08333333       0.72043888 </v>
    <v>       0.08333333       0.58333333       0.72043888 </v>
    <v>       0.58333333       0.08333333       0.72043888 </v>
    <v>       0.58333333       0.58333333       0.72043888 </v>
   </varray>
  </structure>
  <varray name="forces" >
   <v>       0.00793707       0.00455534       0.07156923 </v>
   <v>       0.00794838       0.00454864       0.07165461 </v>
   <v>       0.00789219       0.00462291       0.07164748 </v>
   <v>       0.00786536       0.00448521       0.07189803 </v>
   <v>      -0.00004949      -0.00914551       0.07170569 </v>
   <v>      -0.00003933      -0.00910192       0.07173435 </v>
   <v>      -0.00000378      -0.00908337       0.07153767 </v>
   <v>       0.00009204      -0.00913491       0.07164986 </v>
   <v>      -0.00795825       0.00454127       0.07164196 </v>
   <v>      -0.00795152       0.00448709       0.07149665 </v>
   <v>      -0.00787103       0.00456223       0.07174189 </v>
   <v>      -0.00786020       0.00465938       0.07154793 </v>
   <v>       0.00000173      -0.00000360       0.08632977 </v>
   <v>       0.00008146       0.00006511       0.08623934 </v>
   <v>       0.00006684       0.00003664       0.08631524 </v>
   <v>      -0.00005599      -0.00008003       0.08640818 </v>
   <v>       0.00698994       0.00399393      -0.07987090 </v>
   <v>       0.00688980       0.00410127      -0.07991504 </v>
   <v>       0.00700151       0.00392579      -0.07990174 </v>
   <v>       0.00703362       0.00405485      -0.08004265 </v>
   <v>      -0.00007446      -0.00816613      -0.08001068 </v>
   <v>       0.00011136      -0.00812316      -0.08002614 </v>
   <v>      -0.00007204      -0.00813729      -0.07990807 </v>
   <v>       0.00005500      -0.00798934      -0.08001608 </v>
   <v>      -0.00711940       0.00403203      -0.08000556 </v>
   <v>      -0.00702381       0.00400141      -0.07988557 </v>
   <v>      -0.00699019       0.00419471      -0.08006469 </v>
   <v>      -0.00695940       0.00406727      -0.07999009 </v>
   <v>       0.00006175      -0.00001220      -0.05927139 </v>
   <v>       0.00000351      -0.00005510      -0.05916070 </v>
   <v>      -0.00002852       0.00005503      -0.05915508 </v>
   <v>      -0.00000712      -0.00000857      -0.05913607 </v>
   <v>       0.00005937       0.00005283      -0.00008070 </v>
   <v>      -0.00011317       0.00002684       0.00014877 </v>
   <v>      -0.00001989      -0.00005755       0.00014108 </v>
   <v>       0.00005986       0.00006398      -0.00009598 </v>
   <v>       0.00004703       0.00005076      -0.00018963 </v>
   <v>       0.00002526      -0.00002250      -0.00005297 </v>
   <v>      -0.00008915       0.00009802      -0.00006669 </v>
   <v>      -0.00005679      -0.00008160       0.00007766 </v>
   <v>       0.00006344       0.00004073      -0.00010578 </v>
   <v>       0.00007285      -0.00014064      -0.00002427 </v>
   <v>      -0.00000473       0.00003523      -0.00008541 </v>
   <v>      -0.00006730      -0.00003060       0.00009148 </v>
   <v>       0.00002713      -0.00003435      -0.00008413 </v>
   <v>      -0.00005998       0.00004612       0.00009154 </v>
   <v>       0.00004116      -0.00009859       0.00006970 </v>
   <v>       0.00000311      -0.00000236      -0.00012373 </v>
   <v>      -0.00006237      -0.00003592       0.00011686 </v>
   <v>       0.00002840       0.00004421       0.00017594 </v>
   <v>      -0.00001626      -0.00003108       0.00014171 </v>
   <v>       0.00006727       0.00006676       0.00009956 </v>
   <v>       0.00019870      -0.00005931       0.00000823 </v>
   <v>      -0.00010284       0.00017941      -0.00009792 </v>
   <v>      -0.00005670       0.00007158       0.00015797 </v>
   <v>      -0.00004369      -0.00007930       0.00003393 </v>
   <v>       0.00005446       0.00023361       0.00001065 </v>
   <v>       0.00001148      -0.00015801       0.00003067 </v>
   <v>       0.00009755      -0.00007555      -0.00015267 </v>
   <v>      -0.00010555      -0.00003735       0.00001823 </v>
   <v>      -0.00015178      -0.00004462       0.00005033 </v>
   <v>      -0.00002379      -0.00011103      -0.00005696 </v>
   <v>      -0.00008628       0.00003397       0.00000648 </v>
   <v>       0.00017078       0.00009017      -0.00010457 </v>
   <v>      -0.00006025       0.00003614      -0.00002700 </v>
   <v>       0.00001374      -0.00004504      -0.00003092 </v>
   <v>       0.00004076      -0.00017128      -0.00011471 </v>
   <v>      -0.00001144      -0.00001983      -0.00037599 </v>
   <v>       0.00032908       0.00009965      -0.00002896 </v>
   <v>       0.00015692      -0.00014971       0.00012506 </v>
   <v>       0.00022891      -0.00007117      -0.00053881 </v>
   <v>      -0.00000431      -0.00003529      -0.00019511 </v>
   <v>       0.00010536       0.00019530      -0.00005268 </v>
   <v>      -0.00014629       0.00035155      -0.00063211 </v>
   <v>       0.00005658       0.00013834      -0.00009345 </v>
   <v>      -0.00001447       0.00000466      -0.00028699 </v>
   <v>      -0.00013729       0.00008141      -0.00108607 </v>
   <v>      -0.00010671      -0.00009263       0.00008838 </v>
   <v>      -0.00008322      -0.00010985      -0.00004360 </v>
   <v>      -0.00009807      -0.00002487       0.00006939 </v>
   <v>       0.00003633      -0.00017282      -0.00023699 </v>
   <v>      -0.00124496       0.00020543      -0.00066720 </v>
   <v>      -0.00005760      -0.00017609      -0.00019663 </v>
   <v>       0.00398594       0.00156293      -0.00278856 </v>
   <v>      -0.00001975       0.00014854      -0.00020787 </v>
   <v>      -0.00041144       0.00063650      -0.00090171 </v>
   <v>       0.00280852      -0.01139502      -0.01562197 </v>
   <v>       0.00040163       0.00045270      -0.00076237 </v>
   <v>       0.00003319      -0.00029935      -0.00000575 </v>
   <v>      -0.01354233       0.00903741      -0.02363286 </v>
   <v>       0.00002216       0.00021621      -0.00026513 </v>
   <v>       0.00026993       0.00000988      -0.00073999 </v>
   <v>      -0.00111892      -0.00097883      -0.00120165 </v>
   <v>       0.00018731      -0.00011995      -0.00015323 </v>
   <v>      -0.00047774       0.00037082       0.00017666 </v>
   <v>      -0.00040360      -0.00037068       0.00014952 </v>
   <v>       0.18944044       0.06567647       0.11831705 </v>
   <v>       0.00025807       0.00001256      -0.00071587 </v>
   <v>       0.00058833      -0.00011224      -0.00077350 </v>
   <v>       0.00029252       0.00040735      -0.00008153 </v>
   <v>      -0.00932060      -0.02051675       0.00252189 </v>
   <v>      -0.00547180      -0.02217516       0.00984237 </v>
   <v>      -0.00080187       0.00073630      -0.00049595 </v>
   <v>      -0.00044518       0.00062859      -0.00075727 </v>
   <v>      -0.03907402       0.00340743       0.00304086 </v>
   <v>       0.00020438      -0.00032940      -0.00068453 </v>
   <v>      -0.03050503       0.00674945       0.01042068 </v>
   <v>       0.00029868       0.00001257      -0.00058823 </v>
   <v>      -0.00043125      -0.00031709      -0.00004435 </v>
   <v>      -0.00414151       0.01103036       0.00137773 </v>
   <v>      -0.00288754       0.00925728       0.00137267 </v>
   <v>      -0.00117210      -0.00033075       0.00051458 </v>
   <v>      -0.00019150      -0.00051895       0.00060807 </v>
   <v>      -0.00204854      -0.00173265       0.00084624 </v>
   <v>      -0.00062810       0.00093816       0.00070287 </v>
   <v>      -0.08463597      -0.05212142      -0.10405127 </v>
  </varray>
  <varray name="stress" >
   <v>      -2.10909193      -0.04659860      -0.04947306 </v>
   <v>      -0.04659860      -2.08401996      -0.03889698 </v>
   <v>      -0.04947306      -0.03889698      -2.18015139 </v>
  </varray>
  <energy>
   <i name="e_fr_energy">   -427.46653904 </i>
   <i name="e_wo_entrp">   -427.43992779 </i>
   <i name="e_0_energy">     -0.05322251 </i>
  </energy>
  <time name="totalsc"> 6872.50 6884.75</time>
  <eigenvalues>
   <array>
    <dimension dim="1">band</dimension>
    <dimension dim="2">kpoint</dimension>
    <dimension dim="3">spin</dimension>
    <field>eigene</field>
    <field>occ</field>
    <set>
     <set comment="spin 1">
      <set comment="kpoint 1">
       <r>  -18.6047    1.0000 </r>
       <r>  -18.5945    1.0000 </r>
       <r>  -18.5944    1.0000 </r>
       <r>  -18.5474    1.0000 </r>
       <r>   -9.4541    1.0000 </r>
       <r>   -8.9619    1.0000 </r>
       <r>   -8.1751    1.0000 </r>
       <r>   -7.6010    1.0000 </r>
       <r>   -7.6001    1.0000 </r>
       <r>   -7.6000    1.0000 </r>
       <r>   -7.5783    1.0000 </r>
       <r>   -7.5781    1.0000 </r>
       <r>   -7.5781    1.0000 </r>
       <r>   -7.2220    1.0000 </r>
       <r>   -7.2201    1.0000 </r>
       <r>   -7.2196    1.0000 </r>
       <r>   -7.2008    1.0000 </r>
       <r>   -7.1467    1.0000 </r>
       <r>   -7.1464    1.0000 </r>
       <r>   -7.1462    1.0000 </r>
       <r>   -6.6287    1.0000 </r>
       <r>   -6.6274    1.0000 </r>
       <r>   -6.6262    1.0000 </r>
       <r>   -6.4865    1.0000 </r>
       <r>   -6.4862    1.0000 </r>
       <r>   -6.4855    1.0000 </r>
       <r>   -6.2519    1.0000 </r>
       <r>   -5.9490    1.0000 </r>
       <r>   -5.9464    1.0000 </r>
       <r>   -5.9457    1.0000 </r>
       <r>   -5.7428    1.0000 </r>
       <r>   -5.7426    1.0000 </r>
       <r>   -5.7398    1.0000 </r>
       <r>   -5.6684    1.0000 </r>
       <r>   -5.6189    1.0000 </r>
       <r>   -5.6179    1.0000 </r>
       <r>   -5.4390    1.0000 </r>
       <r>   -5.4110    1.0000 </r>
       <r>   -5.3977    1.0000 </r>
       <r>   -5.3944    1.0000 </r>
       <r>   -5.3420    1.0000 </r>
       <r>   -5.3367    1.0000 </r>
       <r>   -5.3348    1.0000 </r>
       <r>   -5.3249    1.0000 </r>
       <r>   -5.2835    1.0000 </r>
       <r>   -5.2834    1.0000 </r>
       <r>   -5.2157    1.0000 </r>
       <r>   -5.2098    1.0000 </r>
       <r>   -5.2096    1.0000 </r>
       <r>   -5.1944    1.0000 </r>
       <r>   -5.1351    1.0000 </r>
       <r>   -5.1350    1.0000 </r>
       <r>   -5.1244    1.0000 </r>
       <r>   -5.0564    1.0000 </r>
       <r>   -5.0342    1.0000 </r>
       <r>   -5.0341    1.0000 </r>
       <r>   -5.0047    1.0000 </r>
       <r>   -5.0045    1.0000 </r>
       <r>   -5.0041    1.0000 </r>
       <r>   -4.9787    1.0000 </r>
       <r>   -4.9785    1.0000 </r>
       <r>   -4.9784    1.0000 </r>
       <r>   -4.9634    1.0000 </r>
       <r>   -4.9632    1.0000 </r>
       <r>   -4.9573    1.0000 </r>
       <r>   -4.9569    1.0000 </r>
       <r>   -4.9566    1.0000 </r>
       <r>   -4.9364    1.0000 </r>
       <r>   -4.8838    1.0000 </r>
       <r>   -4.8833    1.0000 </r>
       <r>   -4.8830    1.0000 </r>
       <r>   -4.8542    1.0000 </r>
       <r>   -4.8541    1.0000 </r>
       <r>   -4.8539    1.0000 </r>
       <r>   -4.8417    1.0000 </r>
       <r>   -4.8258    1.0000 </r>
       <r>   -4.8257    1.0000 </r>
       <r>   -4.8122    1.0000 </r>
       <r>   -4.8120    1.0000 </r>
       <r>   -4.8094    1.0000 </r>
       <r>   -4.7505    1.0000 </r>
       <r>   -4.7500    1.0000 </r>
       <r>   -4.7497    1.0000 </r>
       <r>   -4.7071    1.0000 </r>
       <r>   -4.7071    1.0000 </r>
       <r>   -4.7066    1.0000 </r>
       <r>   -4.7038    1.0000 </r>
       <r>   -4.6954    1.0000 </r>
       <r>   -4.6953    1.0000 </r>
       <r>   -4.6235    1.0000 </r>
       <r>   -4.6226    1.0000 </r>
       <r>   -4.6221    1.0000 </r>
       <r>   -4.5872    1.0000 </r>
       <r>   -4.5871    1.0000 </r>
       <r>   -4.5866    1.0000 </r>
       <r>   -4.5830    1.0000 </r>
       <r>   -4.5791    1.0000 </r>
       <r>   -4.5791    1.0000 </r>
       <r>   -4.5466    1.0000 </r>
       <r>   -4.5399    1.0000 </r>
       <r>   -4.5396    1.0000 </r>
       <r>   -4.5392    1.0000 </r>
       <r>   -4.5388    1.0000 </r>
       <r>   -4.5387    1.0000 </r>
       <r>   -4.5287    1.0000 </r>
       <r>   -4.5287    1.0000 </r>
       <r>   -4.5285    1.0000 </r>
       <r>   -4.5052    1.0000 </r>
       <r>   -4.5047    1.0000 </r>
       <r>   -4.5046    1.0000 </r>
       <r>   -4.4614    1.0000 </r>
       <r>   -4.4614    1.0000 </r>
       <r>   -4.4612    1.0000 </r>
       <r>   -4.4554    1.0000 </r>
       <r>   -4.4554    1.0000 </r>
       <r>   -4.4554    1.0000 </r>
       <r>   -4.4479    1.0000 </r>
       <r>   -4.4477    1.0000 </r>
       <r>   -4.4471    1.0000 </r>
       <r>   -4.4087    1.0000 </r>
       <r>   -4.4058    1.0000 </r>
       <r>   -4.4054    1.0000 </r>
       <r>   -4.3895    1.0000 </r>
       <r>   -4.3883    1.0000 </r>
       <r>   -4.3513    1.0000 </r>
       <r>   -4.3506    1.0000 </r>
       <r>   -4.3484    1.0000 </r>
       <r>   -4.3386    1.0000 </r>
       <r>   -4.2441    1.0000 </r>
       <r>   -4.2419    1.0000 </r>
       <r>   -4.2299    1.0000 </r>
       <r>   -4.2295    1.0000 </r>
       <r>   -4.2295    1.0000 </r>
       <r>   -4.2211    1.0000 </r>
       <r>   -4.2208    1.0000 </r>
       <r>   -4.2206    1.0000 </r>
       <r>   -4.2187    1.0000 </r>
       <r>   -4.2184    1.0000 </r>
       <r>   -4.2183    1.0000 </r>
       <r>   -4.2150    1.0000 </r>
       <r>   -4.2149    1.0000 </r>
       <r>   -4.2149    1.0000 </r>
       <r>   -4.2123    1.0000 </r>
       <r>   -4.2121    1.0000 </r>
       <r>   -4.2118    1.0000 </r>
       <r>   -4.1805    1.0000 </r>
       <r>   -4.1801    1.0000 </r>
       <r>   -4.1799    1.0000 </r>
       <r>   -4.0986    1.0000 </r>
       <r>   -4.0981    1.0000 </r>
       <r>   -4.0979    1.0000 </r>
       <r>   -4.0803    1.0000 </r>
       <r>   -4.0794    1.0000 </r>
       <r>   -4.0792    1.0000 </r>
       <r>   -4.0777    1.0000 </r>
       <r>   -4.0772    1.0000 </r>
       <r>   -4.0772    1.0000 </r>
       <r>   -4.0575    1.0000 </r>
       <r>   -4.0574    1.0000 </r>
       <r>   -4.0573    1.0000 </r>
       <r>   -4.0460    1.0000 </r>
       <r>   -4.0452    1.0000 </r>
       <r>   -4.0449    1.0000 </r>
       <r>   -4.0181    1.0000 </r>
       <r>   -4.0056    1.0000 </r>
       <r>   -4.0051    1.0000 </r>
       <r>   -4.0049    1.0000 </r>
       <r>   -3.9707    1.0000 </r>
       <r>   -3.9699    1.0000 </r>
       <r>   -3.9392    1.0000 </r>
       <r>   -3.9391    1.0000 </r>
       <r>   -3.9389    1.0000 </r>
       <r>   -3.9304    1.0000 </r>
       <r>   -3.9297    1.0000 </r>
       <r>   -3.9296    1.0000 </r>
       <r>   -3.9109    1.0000 </r>
       <r>   -3.9101    1.0000 </r>
       <r>   -3.9100    1.0000 </r>
       <r>   -3.8807    1.0000 </r>
       <r>   -3.8802    1.0000 </r>
       <r>   -3.8800    1.0000 </r>
       <r>   -3.8788    1.0000 </r>
       <r>   -3.8781    1.0000 </r>
       <r>   -3.8774    1.0000 </r>
       <r>   -3.8327    1.0000 </r>
       <r>   -3.8321    1.0000 </r>
       <r>   -3.8316    1.0000 </r>
       <r>   -3.8308    1.0000 </r>
       <r>   -3.8130    1.0000 </r>
       <r>   -3.8128    1.0000 </r>
       <r>   -3.8128    1.0000 </r>
       <r>   -3.7993    1.0000 </r>
       <r>   -3.7992    1.0000 </r>
       <r>   -3.7991    1.0000 </r>
       <r>   -3.7877    1.0000 </r>
       <r>   -3.7871    1.0000 </r>
       <r>   -3.7870    1.0000 </r>
       <r>   -3.7759    1.0000 </r>
       <r>   -3.7755    1.0000 </r>
       <r>   -3.7753    1.0000 </r>
       <r>   -3.7526    1.0000 </r>
       <r>   -3.7517    1.0000 </r>
       <r>   -3.7515    1.0000 </r>
       <r>   -3.7099    1.0000 </r>
       <r>   -3.7097    1.0000 </r>
       <r>   -3.7097    1.0000 </r>
       <r>   -3.7080    1.0000 </r>
       <r>   -3.7079    1.0000 </r>
       <r>   -3.7078    1.0000 </r>
       <r>   -3.6843    1.0000 </r>
       <r>   -3.6829    1.0000 </r>
       <r>   -3.6827    1.0000 </r>
       <r>   -3.6776    1.0000 </r>
       <r>   -3.6775    1.0000 </r>
       <r>   -3.6774    1.0000 </r>
       <r>   -3.6697    1.0000 </r>
       <r>   -3.6695    1.0000 </r>
       <r>   -3.6443    1.0000 </r>
       <r>   -3.6412    1.0000 </r>
       <r>   -3.6402    1.0000 </r>
       <r>   -3.6183    1.0000 </r>
       <r>   -3.6178    1.0000 </r>
       <r>   -3.6163    1.0000 </r>
       <r>   -3.6161    1.0000 </r>
       <r>   -3.6041    1.0000 </r>
       <r>   -3.6034    1.0000 </r>
       <r>   -3.6031    1.0000 </r>
       <r>   -3.6020    1.0000 </r>
       <r>   -3.6017    1.0000 </r>
       <r>   -3.6015    1.0000 </r>
       <r>   -3.5986    1.0000 </r>
       <r>   -3.5982    1.0000 </r>
       <r>   -3.5981    1.0000 </r>
       <r>   -3.5820    1.0000 </r>
       <r>   -3.5819    1.0000 </r>
       <r>   -3.5817    1.0000 </r>
       <r>   -3.5522    1.0000 </r>
       <r>   -3.5517    1.0000 </r>
       <r>   -3.5502    1.0000 </r>
       <r>   -3.5381    1.0000 </r>
       <r>   -3.5311    1.0000 </r>
       <r>   -3.5126    1.0000 </r>
       <r>   -3.5124    1.0000 </r>
       <r>   -3.4488    1.0000 </r>
       <r>   -3.4485    1.0000 </r>
       <r>   -3.4479    1.0000 </r>
       <r>   -3.4427    1.0000 </r>
       <r>   -3.4347    1.0000 </r>
       <r>   -3.4345    1.0000 </r>
       <r>   -3.4344    1.0000 </r>
       <r>   -3.4290    1.0000 </r>
       <r>   -3.4289    1.0000 </r>
       <r>   -3.4288    1.0000 </r>
       <r>   -3.4200    1.0000 </r>
       <r>   -3.4199    1.0000 </r>
       <r>   -3.4189    1.0000 </r>
       <r>   -3.4189    1.0000 </r>
       <r>   -3.4179    1.0000 </r>
       <r>   -3.4167    1.0000 </r>
       <r>   -3.4166    1.0000 </r>
       <r>   -3.4165    1.0000 </r>
       <r>   -3.4108    1.0000 </r>
       <r>   -3.3993    1.0000 </r>
       <r>   -3.3991    1.0000 </r>
       <r>   -3.3981    1.0000 </r>
       <r>   -3.3873    1.0000 </r>
       <r>   -3.3872    1.0000 </r>
       <r>   -3.3760    1.0000 </r>
       <r>   -3.3641    1.0000 </r>
       <r>   -3.3640    1.0000 </r>
       <r>   -3.3630    1.0000 </r>
       <r>   -3.3508    1.0000 </r>
       <r>   -3.3507    1.0000 </r>
       <r>   -3.3493    1.0000 </r>
       <r>   -3.3459    1.0000 </r>
       <r>   -3.3445    1.0000 </r>
       <r>   -3.3374    1.0000 </r>
       <r>   -3.3365    1.0000 </r>
       <r>   -3.3344    1.0000 </r>
       <r>   -3.3159    1.0000 </r>
       <r>   -3.3158    1.0000 </r>
       <r>   -3.3055    1.0000 </r>
       <r>   -3.3050    1.0000 </r>
       <r>   -3.3042    1.0000 </r>
       <r>   -3.2734    1.0000 </r>
       <r>   -3.2732    1.0000 </r>
       <r>   -3.2728    1.0000 </r>
       <r>   -3.2692    1.0000 </r>
       <r>   -3.2691    1.0000 </r>
       <r>   -3.2597    1.0000 </r>
       <r>   -3.2596    1.0000 </r>
       <r>   -3.2562    1.0000 </r>
[...]
       <r>   -14.5207     0.0000     8.0000 </r>
       <r>   -14.4265     0.0000     8.0000 </r>
       <r>   -14.3323     0.0000     8.0000 </r>
       <r>   -14.2382     0.0000     8.0000 </r>
       <r>   -14.1440     0.0000     8.0000 </r>
       <r>   -14.0498     0.0000     8.0000 </r>
       <r>   -13.9556     0.0000     8.0000 </r>
       <r>   -13.8614     0.0000     8.0000 </r>
       <r>   -13.7673     0.0000     8.0000 </r>
       <r>   -13.6731     0.0000     8.0000 </r>
       <r>   -13.5789     0.0000     8.0000 </r>
       <r>   -13.4847     0.0000     8.0000 </r>
       <r>   -13.3905     0.0000     8.0000 </r>
       <r>   -13.2964     0.0000     8.0000 </r>
       <r>   -13.2022     0.0000     8.0000 </r>
       <r>   -13.1080     0.0000     8.0000 </r>
       <r>   -13.0138     0.0000     8.0000 </r>
       <r>   -12.9197     0.0000     8.0000 </r>
       <r>   -12.8255     0.0000     8.0000 </r>
       <r>   -12.7313     0.0000     8.0000 </r>
       <r>   -12.6371     0.0000     8.0000 </r>
       <r>   -12.5429     0.0000     8.0000 </r>
       <r>   -12.4488     0.0000     8.0000 </r>
       <r>   -12.3546     0.0000     8.0000 </r>
       <r>   -12.2604     0.0000     8.0000 </r>
       <r>   -12.1662     0.0000     8.0000 </r>
       <r>   -12.0720     0.0000     8.0000 </r>
       <r>   -11.9779     0.0000     8.0000 </r>
       <r>   -11.8837     0.0000     8.0000 </r>
       <r>   -11.7895     0.0000     8.0000 </r>
       <r>   -11.6953     0.0000     8.0000 </r>
       <r>   -11.6011     0.0000     8.0000 </r>
       <r>   -11.5070     0.0000     8.0000 </r>
       <r>   -11.4128     0.0000     8.0000 </r>
       <r>   -11.3186     0.0000     8.0000 </r>
       <r>   -11.2244     0.0000     8.0000 </r>
       <r>   -11.1302     0.0000     8.0000 </r>
       <r>   -11.0361     0.0000     8.0000 </r>
       <r>   -10.9419     0.0000     8.0000 </r>
       <r>   -10.8477     0.0000     8.0000 </r>
       <r>   -10.7535     0.0000     8.0000 </r>
       <r>   -10.6593     0.0000     8.0000 </r>
       <r>   -10.5652     0.0000     8.0000 </r>
       <r>   -10.4710     0.0000     8.0000 </r>
       <r>   -10.3768     0.0000     8.0000 </r>
       <r>   -10.2826     0.0000     8.0000 </r>
       <r>   -10.1884     0.0000     8.0000 </r>
       <r>   -10.0943     0.0000     8.0000 </r>
       <r>   -10.0001     0.0000     8.0000 </r>
       <r>    -9.9059     0.0000     8.0000 </r>
       <r>    -9.8117     0.0000     8.0000 </r>
       <r>    -9.7175     0.0000     8.0000 </r>
       <r>    -9.6234     0.0000     8.0000 </r>
       <r>    -9.5292     0.0223     8.0021 </r>
       <r>    -9.4350     0.9256     8.0893 </r>
       <r>    -9.3408     3.4223     8.4116 </r>
       <r>    -9.2466     4.8486     8.8682 </r>
       <r>    -9.1525     0.2949     8.8960 </r>
       <r>    -9.0583     5.9761     9.4588 </r>
       <r>    -8.9641     6.3264    10.0547 </r>
       <r>    -8.8699     6.3767    10.6552 </r>
       <r>    -8.7757     6.0670    11.2266 </r>
       <r>    -8.6816     0.5914    11.2823 </r>
       <r>    -8.5874    15.9937    12.7886 </r>
       <r>    -8.4932    10.9410    13.8190 </r>
       <r>    -8.3990     6.2010    14.4030 </r>
       <r>    -8.3048     6.0881    14.9764 </r>
       <r>    -8.2107     0.8522    15.0567 </r>
       <r>    -8.1165    13.2278    16.3025 </r>
       <r>    -8.0223    14.4905    17.6672 </r>
       <r>    -7.9281    13.4673    18.9355 </r>
       <r>    -7.8339    19.3302    20.7560 </r>
       <r>    -7.7398     6.8311    21.3994 </r>
       <r>    -7.6456     5.9123    21.9562 </r>
       <r>    -7.5514    13.2307    23.2023 </r>
       <r>    -7.4572    15.9089    24.7006 </r>
       <r>    -7.3630    16.2148    26.2277 </r>
       <r>    -7.2689     9.0719    27.0820 </r>
       <r>    -7.1747    20.4671    29.0096 </r>
       <r>    -7.0805    16.4794    30.5617 </r>
       <r>    -6.9863    12.8004    31.7672 </r>
       <r>    -6.8921    17.2527    33.3921 </r>
       <r>    -6.7980    31.5655    36.3649 </r>
       <r>    -6.7038    15.2608    37.8022 </r>
       <r>    -6.6096    18.0473    39.5019 </r>
       <r>    -6.5154    13.7063    40.7927 </r>
       <r>    -6.4212    24.4940    43.0996 </r>
       <r>    -6.3271    23.4479    45.3079 </r>
       <r>    -6.2329    18.9206    47.0898 </r>
       <r>    -6.1387    46.5760    51.4763 </r>
       <r>    -6.0445    20.9074    53.4454 </r>
       <r>    -5.9503    45.8014    57.7590 </r>
       <r>    -5.8562    21.1298    59.7490 </r>
       <r>    -5.7620    20.4147    61.6716 </r>
       <r>    -5.6678    58.8437    67.2135 </r>
       <r>    -5.5736    86.5518    75.3649 </r>
       <r>    -5.4794    74.1948    82.3526 </r>
       <r>    -5.3853    60.3849    88.0396 </r>
       <r>    -5.2911    96.2519    97.1046 </r>
       <r>    -5.1969    89.5767   105.5409 </r>
       <r>    -5.1027   109.0131   115.8078 </r>
       <r>    -5.0085   119.7887   127.0894 </r>
       <r>    -4.9144   145.5415   140.7965 </r>
       <r>    -4.8202   127.9659   152.8483 </r>
       <r>    -4.7260   126.3313   164.7462 </r>
       <r>    -4.6318   167.8894   180.5580 </r>
       <r>    -4.5376   204.8150   199.8474 </r>
       <r>    -4.4435   242.3293   222.6699 </r>
       <r>    -4.3493   284.7522   249.4878 </r>
       <r>    -4.2551   252.6958   273.2867 </r>
       <r>    -4.1609   220.0950   294.0152 </r>
       <r>    -4.0667   205.9451   313.4111 </r>
       <r>    -3.9726   221.4191   334.2643 </r>
       <r>    -3.8784   272.0257   359.8836 </r>
       <r>    -3.7842   278.9660   386.1566 </r>
       <r>    -3.6900   323.2024   416.5957 </r>
       <r>    -3.5958   317.7284   446.5193 </r>
       <r>    -3.5017   325.0278   477.1304 </r>
       <r>    -3.4075   394.2382   514.2597 </r>
       <r>    -3.3133   478.4658   559.3215 </r>
       <r>    -3.2191   505.8348   606.9609 </r>
       <r>    -3.1249   437.6993   648.1833 </r>
       <r>    -3.0308   451.4150   690.6975 </r>
       <r>    -2.9366   324.8885   721.2955 </r>
       <r>    -2.8424   363.2389   755.5052 </r>
       <r>    -2.7482   347.0065   788.1862 </r>
       <r>    -2.6541   411.5217   826.9433 </r>
       <r>    -2.5599   408.1130   865.3793 </r>
       <r>    -2.4657   389.7291   902.0839 </r>
       <r>    -2.3715   429.4858   942.5328 </r>
       <r>    -2.2773   419.1291   982.0063 </r>
       <r>    -2.1832   441.9876  1023.6326 </r>
       <r>    -2.0890   531.7563  1073.7133 </r>
       <r>    -1.9948   616.5678  1131.7816 </r>
       <r>    -1.9006   430.1379  1172.2919 </r>
       <r>    -1.8064   159.4839  1187.3120 </r>
       <r>    -1.7123    68.6263  1193.7753 </r>
       <r>    -1.6181    52.5522  1198.7246 </r>
       <r>    -1.5239    58.3720  1204.2221 </r>
       <r>    -1.4297    59.9159  1209.8650 </r>
       <r>    -1.3355    89.1977  1218.2656 </r>
       <r>    -1.2414    59.3808  1223.8580 </r>
       <r>    -1.1472    35.4401  1227.1958 </r>
       <r>    -1.0530    11.6583  1228.2938 </r>
       <r>    -0.9588    48.1272  1232.8264 </r>
       <r>    -0.8646    37.9809  1236.4034 </r>
       <r>    -0.7705    43.7486  1240.5237 </r>
       <r>    -0.6763    47.7284  1245.0187 </r>
       <r>    -0.5821    57.3960  1250.4242 </r>
       <r>    -0.4879    20.1506  1252.3220 </r>
       <r>    -0.3937    35.2743  1255.6442 </r>
       <r>    -0.2996    37.3981  1259.1663 </r>
       <r>    -0.2054    41.2591  1263.0521 </r>
       <r>    -0.1112    23.4851  1265.2639 </r>
       <r>    -0.0170    35.2587  1268.5846 </r>
       <r>     0.0772    48.8754  1273.1876 </r>
       <r>     0.1713    42.0860  1277.1513 </r>
       <r>     0.2655    12.9056  1278.3667 </r>
       <r>     0.3597    25.6759  1280.7849 </r>
       <r>     0.4539    43.4962  1284.8813 </r>
       <r>     0.5481    33.9214  1288.0761 </r>
       <r>     0.6422    28.6209  1290.7716 </r>
       <r>     0.7364    54.5171  1295.9060 </r>
       <r>     0.8306    35.0363  1299.2057 </r>
       <r>     0.9248    31.3673  1302.1599 </r>
       <r>     1.0190    29.1830  1304.9083 </r>
       <r>     1.1131    29.2044  1307.6588 </r>
       <r>     1.2073    47.1152  1312.0961 </r>
       <r>     1.3015    19.1938  1313.9037 </r>
       <r>     1.3957    20.4656  1315.8312 </r>
       <r>     1.4899    37.2053  1319.3352 </r>
       <r>     1.5840    32.3173  1322.3788 </r>
       <r>     1.6782    27.6266  1324.9807 </r>
       <r>     1.7724    20.5001  1326.9114 </r>
       <r>     1.8666    41.6869  1330.8374 </r>
       <r>     1.9608    37.0452  1334.3263 </r>
       <r>     2.0549    39.2838  1338.0261 </r>
       <r>     2.1491    24.7161  1340.3538 </r>
       <r>     2.2433    37.8781  1343.9212 </r>
       <r>     2.3375    24.5200  1346.2305 </r>
       <r>     2.4317    22.6369  1348.3624 </r>
       <r>     2.5258    14.4696  1349.7252 </r>
       <r>     2.6200    11.9573  1350.8513 </r>
       <r>     2.7142    19.6703  1352.7039 </r>
       <r>     2.8084    32.6969  1355.7832 </r>
       <r>     2.9026    28.1440  1358.4338 </r>
       <r>     2.9967    26.9456  1360.9716 </r>
       <r>     3.0909    19.4433  1362.8027 </r>
       <r>     3.1851    23.5155  1365.0174 </r>
       <r>     3.2793    20.9096  1366.9867 </r>
       <r>     3.3735     8.9255  1367.8273 </r>
       <r>     3.4676    30.6887  1370.7175 </r>
       <r>     3.5618    31.8370  1373.7159 </r>
       <r>     3.6560    27.8682  1376.3406 </r>
       <r>     3.7502     6.9598  1376.9960 </r>
       <r>     3.8444    22.0274  1379.0706 </r>
       <r>     3.9385    44.3889  1383.2511 </r>
       <r>     4.0327    32.4062  1386.3031 </r>
       <r>     4.1269    42.3129  1390.2881 </r>
       <r>     4.2211    50.6728  1395.0605 </r>
       <r>     4.3153    35.3200  1398.3869 </r>
       <r>     4.4094    18.3191  1400.1122 </r>
       <r>     4.5036    23.1168  1402.2894 </r>
       <r>     4.5978    31.6977  1405.2746 </r>
       <r>     4.6920    37.9313  1408.8470 </r>
       <r>     4.7862    41.1824  1412.7256 </r>
       <r>     4.8803    47.6650  1417.2146 </r>
       <r>     4.9745    37.9929  1420.7928 </r>
       <r>     5.0687    40.2180  1424.5805 </r>
       <r>     5.1629    37.2145  1428.0854 </r>
       <r>     5.2571    28.7792  1430.7958 </r>
       <r>     5.3512    59.3376  1436.3842 </r>
       <r>     5.4454    37.3622  1439.9030 </r>
       <r>     5.5396    54.0464  1444.9931 </r>
       <r>     5.6338    34.0446  1448.1994 </r>
       <r>     5.7280    34.3262  1451.4322 </r>
       <r>     5.8221    33.5345  1454.5905 </r>
       <r>     5.9163    33.3227  1457.7288 </r>
       <r>     6.0105    61.4973  1463.5206 </r>
       <r>     6.1047    54.3717  1468.6413 </r>
       <r>     6.1989    44.4985  1472.8322 </r>
       <r>     6.2930    40.4719  1476.6438 </r>
       <r>     6.3872    36.5852  1480.0894 </r>
       <r>     6.4814    50.9863  1484.8913 </r>
       <r>     6.5756    42.8135  1488.9235 </r>
       <r>     6.6698    35.2962  1492.2477 </r>
       <r>     6.7639    37.4083  1495.7708 </r>
       <r>     6.8581    59.0390  1501.3310 </r>
       <r>     6.9523    49.1040  1505.9556 </r>
       <r>     7.0465    36.6249  1509.4050 </r>
       <r>     7.1407    26.6391  1511.9138 </r>
       <r>     7.2348     0.9148  1512.0000 </r>
       <r>     7.3290     0.0001  1512.0000 </r>
       <r>     7.4232     0.0000  1512.0000 </r>
       <r>     7.5174     0.0000  1512.0000 </r>
       <r>     7.6115     0.0000  1512.0000 </r>
       <r>     7.7057     0.0000  1512.0000 </r>
       <r>     7.7999     0.0000  1512.0000 </r>
       <r>     7.8941     0.0000  1512.0000 </r>
       <r>     7.9883     0.0000  1512.0000 </r>
       <r>     8.0824     0.0000  1512.0000 </r>
       <r>     8.1766     0.0000  1512.0000 </r>
       <r>     8.2708     0.0000  1512.0000 </r>
       <r>     8.3650     0.0000  1512.0000 </r>
      </set>
     </set>
    </array>
   </total>
  </dos>
 </calculation>
 <structure name="finalpos" >
  <crystal>
   <varray name="basis" >
    <v>      10.28518105       0.00000000       0.00000000 </v>
    <v>       5.14259052       8.90722807       0.00000000 </v>
    <v>       0.00000000       0.00000000      27.79016876 </v>
   </varray>
   <i name="volume">   2545.92553775 </i>
   <varray name="rec_basis" >
    <v>       0.09722726      -0.05613419       0.00000000 </v>
    <v>       0.00000000       0.11226837       0.00000000 </v>
    <v>       0.00000000       0.00000000       0.03598395 </v>
   </varray>
  </crystal>
  <varray name="positions" >
   <v>       0.00000000       0.00000000       0.22663990 </v>
   <v>       0.00000000       0.50000000       0.22663990 </v>
   <v>       0.50000000       0.00000000       0.22663990 </v>
   <v>       0.50000000       0.50000000       0.22663990 </v>
   <v>       0.00000000       0.25000000       0.22663990 </v>
   <v>       0.00000000       0.75000000       0.22663990 </v>
   <v>       0.50000000       0.25000000       0.22663990 </v>
   <v>       0.50000000       0.75000000       0.22663990 </v>
   <v>       0.25000000       0.00000000       0.22663990 </v>
   <v>       0.25000000       0.50000000       0.22663990 </v>
   <v>       0.75000000       0.00000000       0.22663990 </v>
   <v>       0.75000000       0.50000000       0.22663990 </v>
   <v>       0.25000000       0.25000000       0.22663990 </v>
   <v>       0.25000000       0.75000000       0.22663990 </v>
   <v>       0.75000000       0.25000000       0.22663990 </v>
   <v>       0.75000000       0.75000000       0.22663990 </v>
   <v>       0.16666666       0.16666666       0.30218653 </v>
   <v>       0.16666666       0.66666666       0.30218653 </v>
   <v>       0.66666666       0.16666666       0.30218653 </v>
   <v>       0.66666666       0.66666666       0.30218653 </v>
   <v>       0.16666666       0.41666666       0.30218653 </v>
   <v>       0.16666666       0.91666666       0.30218653 </v>
   <v>       0.66666666       0.41666666       0.30218653 </v>
   <v>       0.66666666       0.91666666       0.30218653 </v>
   <v>       0.41666666       0.16666666       0.30218653 </v>
   <v>       0.41666666       0.66666666       0.30218653 </v>
   <v>       0.91666666       0.16666666       0.30218653 </v>
   <v>       0.91666666       0.66666666       0.30218653 </v>
   <v>       0.41666666       0.41666666       0.30218653 </v>
   <v>       0.41666666       0.91666666       0.30218653 </v>
   <v>       0.91666666       0.41666666       0.30218653 </v>
   <v>       0.91666666       0.91666666       0.30218653 </v>
   <v>       0.08333333       0.08333333       0.37716320 </v>
   <v>       0.08333333       0.58333333       0.37716320 </v>
   <v>       0.58333333       0.08333333       0.37716320 </v>
   <v>       0.58333333       0.58333333       0.37716320 </v>
   <v>       0.08351614       0.33324190       0.37729758 </v>
   <v>       0.08351614       0.83324190       0.37729758 </v>
   <v>       0.58351614       0.33324190       0.37729758 </v>
   <v>       0.58351614       0.83324190       0.37729758 </v>
   <v>       0.33324190       0.08351614       0.37729758 </v>
   <v>       0.33324190       0.58351614       0.37729758 </v>
   <v>       0.83324190       0.08351614       0.37729758 </v>
   <v>       0.83324190       0.58351614       0.37729758 </v>
   <v>       0.33324190       0.33324190       0.37729758 </v>
   <v>       0.33324190       0.83324190       0.37729758 </v>
   <v>       0.83324190       0.33324190       0.37729758 </v>
   <v>       0.83324190       0.83324190       0.37729758 </v>
   <v>       0.00012997       0.00012997       0.45242342 </v>
   <v>       0.00012997       0.50012997       0.45242342 </v>
   <v>       0.50012997       0.00012997       0.45242342 </v>
   <v>       0.50012997       0.50012997       0.45242342 </v>
   <v>       0.00012997       0.24974005       0.45242342 </v>
   <v>       0.00012997       0.74974005       0.45242342 </v>
   <v>       0.50012997       0.24974005       0.45242342 </v>
   <v>       0.50012997       0.74974005       0.45242342 </v>
   <v>       0.24974005       0.00012997       0.45242342 </v>
   <v>       0.24974005       0.50012997       0.45242342 </v>
   <v>       0.74974005       0.00012997       0.45242342 </v>
   <v>       0.74974005       0.50012997       0.45242342 </v>
   <v>       0.25000000       0.25000000       0.45288750 </v>
   <v>       0.25000000       0.75000000       0.45288750 </v>
   <v>       0.75000000       0.25000000       0.45288750 </v>
   <v>       0.75000000       0.75000000       0.45288750 </v>
   <v>       0.16660598       0.16660598       0.52813907 </v>
   <v>       0.16660598       0.66660598       0.52813907 </v>
   <v>       0.66660598       0.16660598       0.52813907 </v>
   <v>       0.66660598       0.66660598       0.52813907 </v>
   <v>       0.16660598       0.41678801       0.52813907 </v>
   <v>       0.16660598       0.91678801       0.52813907 </v>
   <v>       0.66660598       0.41678801       0.52813907 </v>
   <v>       0.66660598       0.91678801       0.52813907 </v>
   <v>       0.41678801       0.16660598       0.52813907 </v>
   <v>       0.41678801       0.66660598       0.52813907 </v>
   <v>       0.91678801       0.16660598       0.52813907 </v>
   <v>       0.91678801       0.66660598       0.52813907 </v>
   <v>       0.41666666       0.41666666       0.52741939 </v>
   <v>       0.41666666       0.91666666       0.52741939 </v>
   <v>       0.91666666       0.41666666       0.52741939 </v>
   <v>       0.91666666       0.91666666       0.52741939 </v>
   <v>       0.08333333       0.08333333       0.60253339 </v>
   <v>       0.08333333       0.58333333       0.60253339 </v>
   <v>       0.58333333       0.08333333       0.60253339 </v>
   <v>       0.58333333       0.58333333       0.60253339 </v>
   <v>       0.08130935       0.33434529       0.60320464 </v>
   <v>       0.08130935       0.83434529       0.60320464 </v>
   <v>       0.58130935       0.33434529       0.60320464 </v>
   <v>       0.58130935       0.83434529       0.60320464 </v>
   <v>       0.33434529       0.08130935       0.60320464 </v>
   <v>       0.33434529       0.58130935       0.60320464 </v>
   <v>       0.83434529       0.08130935       0.60320464 </v>
   <v>       0.83434529       0.58130935       0.60320464 </v>
   <v>       0.33434529       0.33434529       0.60320464 </v>
   <v>       0.33434529       0.83434529       0.60320464 </v>
   <v>       0.83434529       0.33434529       0.60320464 </v>
   <v>       0.83434529       0.83434529       0.60320464 </v>
   <v>       0.49577148       0.49714648       0.68006359 </v>
   <v>       0.49714648       0.99714648       0.68057248 </v>
   <v>       0.99714648       0.49714648       0.68057248 </v>
   <v>       0.99714648       0.99714648       0.68057248 </v>
   <v>       0.49714648       0.25570704       0.68057248 </v>
   <v>       0.49714648       0.75570704       0.68057248 </v>
   <v>       0.99714648       0.25570704       0.68057248 </v>
   <v>       0.99714648       0.75570704       0.68057248 </v>
   <v>       0.25570704       0.49714648       0.68057248 </v>
   <v>       0.25570704       0.99714648       0.68057248 </v>
   <v>       0.75570704       0.49714648       0.68057248 </v>
   <v>       0.75570704       0.99714648       0.68057248 </v>
   <v>       0.25000000       0.25000000       0.67480871 </v>
   <v>       0.25000000       0.75000000       0.67480871 </v>
   <v>       0.75000000       0.25000000       0.67480871 </v>
   <v>       0.75000000       0.75000000       0.67480871 </v>
   <v>       0.08333333       0.08333333       0.72043888 </v>
   <v>       0.08333333       0.58333333       0.72043888 </v>
   <v>       0.58333333       0.08333333       0.72043888 </v>
   <v>       0.58333333       0.58333333       0.72043888 </v>
  </varray>
 </structure>
</modeling>
