<?xml version="1.0" encoding="ISO-8859-1"?>
<modeling>
 <generator>
  <i name="program" type="string">vasp </i>
  <i name="version" type="string">5.4.4.18Apr17-6-g9f103f2a35  </i>
  <i name="subversion" type="string">(build Feb 09 2021 16:27:36) complex            parallel </i>
  <i name="platform" type="string">IFC15_impi </i>
  <i name="date" type="string">2021 04 29 </i>
  <i name="time" type="string">03:46:14 </i>
 </generator>
 <incar>
  <i type="int" name="ISTART">     0</i>
  <i type="string" name="PREC">a</i>
  <i type="logical" name="ADDGRID"> T  </i>
  <i type="int" name="NELM">   300</i>
  <i type="int" name="NELMIN">     5</i>
  <i type="int" name="IBRION">    -1</i>
  <i name="EDIFF">      0.00000001</i>
  <i name="ENCUT">    500.00000000</i>
  <i type="logical" name="LREAL"> F  </i>
  <i type="int" name="ISMEAR">     0</i>
  <i name="SIGMA">      0.05000000</i>
  <i type="logical" name="LWAVE"> F  </i>
  <i type="logical" name="LCHARG"> F  </i>
  <v type="int" name="KPOINT_BSE">    -1     0     0     0</v>
  <i type="int" name="NELM">   300</i>
  <i type="logical" name="LDIPOL"> T  </i>
  <i type="int" name="IDIPOL">     3</i>
 </incar>
 <structure name="primitive_cell" >
  <crystal>
   <varray name="basis" >
    <v>      17.03433609       0.00000000       0.00000000 </v>
    <v>      -8.51716805      14.75216779       0.00000000 </v>
    <v>       0.00000000       0.00000000      31.29407310 </v>
   </varray>
   <i name="volume">   7863.99353597 </i>
   <varray name="rec_basis" >
    <v>       0.05870496       0.03389332       0.00000000 </v>
    <v>       0.00000000       0.06778665       0.00000000 </v>
    <v>       0.00000000       0.00000000       0.03195493 </v>
   </varray>
  </crystal>
  <varray name="positions" >
   <v>       0.04889542       0.39944771      -0.00431747 </v>
   <v>       0.02661586       0.22338414      -0.00509755 </v>
   <v>       0.02661586      -0.44676828      -0.00509755 </v>
   <v>       0.25000000      -0.50000000      -0.00506925 </v>
   <v>      -0.14944771       0.39944771      -0.00431747 </v>
   <v>      -0.14944771       0.20110457      -0.00431747 </v>
   <v>       0.00060404      -0.49879191       0.07927097 </v>
   <v>       0.00060404       0.24939596       0.07927100 </v>
   <v>       0.25000000      -0.50000000       0.08094485 </v>
   <v>      -0.08333334       0.33333334       0.10951073 </v>
   <v>       0.16687125       0.33374251       0.11114905 </v>
   <v>       0.16687125      -0.41687125       0.11114905 </v>
   <v>       0.19676828       0.22338414      -0.00509755 </v>
   <v>       0.19676828      -0.27661586      -0.00509755 </v>
   <v>       0.35055229      -0.29889543      -0.00431747 </v>
   <v>       0.35055229       0.39944771      -0.00431747 </v>
   <v>      -0.25120809       0.24939596       0.07927100 </v>
   <v>      -0.30323172       0.22338414      -0.00509755 </v>
   <v>       0.02661586       0.05323172      -0.00509755 </v>
   <v>       0.02661586      -0.27661586      -0.00509755 </v>
   <v>       0.24879191       0.24939596       0.07927100 </v>
   <v>       0.24879191      -0.25060404       0.07927100 </v>
   <v>      -0.08374251       0.08312875       0.11114905 </v>
   <v>      -0.08374251      -0.41687125       0.11114905 </v>
   <v>      -0.25000000       0.00000000      -0.00506925 </v>
   <v>      -0.25000000      -0.50000000      -0.00506925 </v>
   <v>      -0.08333334       0.33333334       0.19342860 </v>
   <v>       0.41625749      -0.41687125       0.11114905 </v>
   <v>      -0.25000000       0.00000000       0.08094485 </v>
   <v>      -0.25000000      -0.50000000       0.08094485 </v>
   <v>       0.16660331       0.33320661       0.19452973 </v>
   <v>       0.16660331      -0.41660330       0.19452973 </v>
   <v>       0.00060404       0.00120809       0.07927097 </v>
   <v>       0.00060404      -0.25060404       0.07927100 </v>
   <v>      -0.33312875       0.08312875       0.11114905 </v>
   <v>      -0.33312875       0.33374251       0.11114905 </v>
   <v>       0.08333331       0.41666666       0.22222222 </v>
   <v>      -0.47338414      -0.44676828      -0.00509755 </v>
   <v>      -0.47338414      -0.27661586      -0.00509755 </v>
   <v>      -0.14944771      -0.29889543      -0.00431747 </v>
   <v>       0.35055229      -0.10055229      -0.00431747 </v>
   <v>      -0.14944771      -0.10055229      -0.00431747 </v>
   <v>       0.35055229       0.20110457      -0.00431747 </v>
   <v>      -0.49939596      -0.49879191       0.07927097 </v>
   <v>      -0.49939596      -0.25060404       0.07927100 </v>
   <v>       0.16687125       0.08312875       0.11114905 </v>
   <v>       0.16687125      -0.16625749       0.11114905 </v>
   <v>       0.41666666       0.33333334       0.10951073 </v>
   <v>       0.41666666      -0.16666666       0.10951073 </v>
   <v>      -0.08320661       0.08339670       0.19452973 </v>
   <v>      -0.08320661      -0.41660330       0.19452973 </v>
   <v>      -0.47338414       0.05323172      -0.00509755 </v>
   <v>      -0.47338414       0.22338414      -0.00509755 </v>
   <v>      -0.16666666       0.41666666       0.22222222 </v>
   <v>      -0.16666666       0.16666667       0.22222222 </v>
   <v>       0.41679339      -0.41660330       0.19452973 </v>
   <v>       0.08333331       0.16666669       0.22222222 </v>
   <v>       0.08333331      -0.33333331       0.22222222 </v>
   <v>       0.33333334      -0.33333333       0.22222222 </v>
   <v>       0.33333334       0.41666666       0.22222222 </v>
   <v>      -0.45110458       0.39944771      -0.00431747 </v>
   <v>       0.04889542      -0.10055229      -0.00431747 </v>
   <v>      -0.45110458      -0.10055229      -0.00431747 </v>
   <v>      -0.33339669       0.08339670       0.19452973 </v>
   <v>      -0.33339669       0.33320661       0.19452973 </v>
   <v>      -0.49939596       0.00120809       0.07927097 </v>
   <v>      -0.49939596       0.24939596       0.07927100 </v>
   <v>       0.25083021       0.00000000      -0.00461734 </v>
   <v>       0.16660331       0.08339670       0.19452973 </v>
   <v>       0.16660331      -0.16679339       0.19452973 </v>
   <v>      -0.33312875      -0.16625749       0.11114905 </v>
   <v>      -0.33312875      -0.41687125       0.11114905 </v>
   <v>       0.41666666       0.33333334       0.19342860 </v>
   <v>       0.41666666      -0.16666666       0.19342860 </v>
   <v>       0.25000000       0.00000000       0.08094485 </v>
   <v>      -0.08333334      -0.16666666       0.10951073 </v>
   <v>      -0.30323172      -0.27661586      -0.00509755 </v>
   <v>       0.08333331       0.41666666       0.30555555 </v>
   <v>      -0.41666669       0.16666669       0.22222222 </v>
   <v>      -0.25120809      -0.25060404       0.07927100 </v>
   <v>       0.41625749       0.08312875       0.11114905 </v>
   <v>      -0.16666666      -0.33333333       0.22222222 </v>
   <v>      -0.16666666      -0.08333334       0.22222222 </v>
   <v>       0.33333334      -0.08333334       0.22222222 </v>
   <v>       0.33333334       0.16666667       0.22222222 </v>
   <v>      -0.16666666       0.41666666       0.30555555 </v>
   <v>      -0.16666666       0.16666667       0.30555555 </v>
   <v>      -0.33339669      -0.16679339       0.19452973 </v>
   <v>      -0.33339669      -0.41660330       0.19452973 </v>
   <v>      -0.41666669      -0.33333331       0.22222222 </v>
   <v>       0.08333331       0.16666669       0.30555555 </v>
   <v>       0.08333331      -0.33333331       0.30555555 </v>
   <v>      -0.08333334      -0.16666666       0.19342860 </v>
   <v>      -0.41666669       0.41666666       0.22222222 </v>
   <v>      -0.41666669      -0.08333334       0.22222222 </v>
   <v>       0.33333334      -0.33333333       0.30555555 </v>
   <v>       0.33333334       0.41666666       0.30555555 </v>
   <v>       0.00000000       0.25000000       0.33333334 </v>
   <v>       0.00000000      -0.50000000       0.33333334 </v>
   <v>       0.25000000      -0.50000000       0.33333334 </v>
   <v>       0.08333331      -0.08333334       0.22222222 </v>
   <v>       0.41679339       0.08339670       0.19452973 </v>
   <v>      -0.25000000       0.25000000       0.33333334 </v>
   <v>       0.25000000       0.25000000       0.33333334 </v>
   <v>       0.25000000      -0.25000000       0.33333334 </v>
   <v>      -0.41666669       0.16666669       0.30555555 </v>
   <v>      -0.16666666      -0.33333333       0.30555555 </v>
   <v>      -0.16666666      -0.08333334       0.30555555 </v>
   <v>      -0.25000000       0.00000000       0.33333334 </v>
   <v>      -0.25000000      -0.50000000       0.33333334 </v>
   <v>       0.33333334      -0.08333334       0.30555555 </v>
   <v>       0.33333334       0.16666667       0.30555555 </v>
   <v>       0.00000000       0.00000000       0.33333334 </v>
   <v>       0.00000000      -0.25000000       0.33333334 </v>
   <v>      -0.41666669      -0.33333331       0.30555555 </v>
   <v>      -0.41666669       0.41666666       0.30555555 </v>
   <v>      -0.41666669      -0.08333334       0.30555555 </v>
   <v>      -0.50000000      -0.50000000       0.33333334 </v>
   <v>      -0.50000000      -0.25000000       0.33333334 </v>
   <v>       0.08333331      -0.08333334       0.30555555 </v>
   <v>       0.00000000       0.25000000       0.41666666 </v>
   <v>       0.00000000      -0.50000000       0.41666666 </v>
   <v>      -0.50000000       0.00000000       0.33333334 </v>
   <v>      -0.50000000       0.25000000       0.33333334 </v>
   <v>       0.25000000      -0.50000000       0.41666666 </v>
   <v>       0.25000000       0.00000000       0.33333334 </v>
   <v>      -0.25000000       0.25000000       0.41666666 </v>
   <v>       0.25000000       0.25000000       0.41666666 </v>
   <v>       0.25000000      -0.25000000       0.41666666 </v>
   <v>      -0.08333334       0.33333334       0.44444445 </v>
   <v>      -0.25000000      -0.25000000       0.33333334 </v>
   <v>       0.16666667       0.33333334       0.44444445 </v>
   <v>       0.16666667      -0.41666666       0.44444445 </v>
   <v>      -0.25000000       0.00000000       0.41666666 </v>
   <v>      -0.25000000      -0.50000000       0.41666666 </v>
   <v>       0.00000000       0.00000000       0.41666666 </v>
   <v>       0.00000000      -0.25000000       0.41666666 </v>
   <v>      -0.08333334       0.08333334       0.44444445 </v>
   <v>      -0.08333334      -0.41666666       0.44444445 </v>
   <v>      -0.50000000      -0.50000000       0.41666666 </v>
   <v>      -0.50000000      -0.25000000       0.41666666 </v>
   <v>       0.41666666      -0.41666666       0.44444445 </v>
   <v>      -0.33333333       0.08333334       0.44444445 </v>
   <v>      -0.33333333       0.33333334       0.44444445 </v>
   <v>       0.16666667       0.08333334       0.44444445 </v>
   <v>       0.16666667      -0.16666666       0.44444445 </v>
   <v>      -0.50000000       0.00000000       0.41666666 </v>
   <v>      -0.50000000       0.25000000       0.41666666 </v>
   <v>      -0.08333334       0.33333334      -0.49992920 </v>
   <v>       0.41666666       0.33333334       0.44444445 </v>
   <v>       0.41666666      -0.16666666       0.44444445 </v>
   <v>       0.16666667       0.33333334      -0.49992920 </v>
   <v>       0.16666667      -0.41666666      -0.49992920 </v>
   <v>       0.25000000       0.00000000       0.41666666 </v>
   <v>      -0.08333334       0.08333334      -0.49992920 </v>
   <v>      -0.08333334      -0.41666666      -0.49992920 </v>
   <v>      -0.25000000      -0.25000000       0.41666666 </v>
   <v>      -0.33333333      -0.16666666       0.44444445 </v>
   <v>      -0.33333333      -0.41666666       0.44444445 </v>
   <v>       0.41666666      -0.41666666      -0.49992920 </v>
   <v>      -0.08333334      -0.16666666       0.44444445 </v>
   <v>      -0.33333333       0.08333334      -0.49992920 </v>
   <v>      -0.33333333       0.33333334      -0.49992920 </v>
   <v>       0.41666666       0.08333334       0.44444445 </v>
   <v>       0.16666667       0.08333334      -0.49992920 </v>
   <v>       0.16666667      -0.16666666      -0.49992920 </v>
   <v>       0.41666666       0.33333334      -0.49992920 </v>
   <v>       0.41666666      -0.16666666      -0.49992920 </v>
   <v>      -0.33333333      -0.16666666      -0.49992920 </v>
   <v>      -0.33333333      -0.41666666      -0.49992920 </v>
   <v>      -0.08333334      -0.16666666      -0.49992920 </v>
   <v>       0.41666666       0.08333334      -0.49992920 </v>
  </varray>
 </structure>
 <varray name="primitive_index" >
  <v type="int" >        1 </v>
  <v type="int" >       25 </v>
  <v type="int" >       14 </v>
  <v type="int" >       22 </v>
  <v type="int" >        7 </v>
  <v type="int" >       11 </v>
  <v type="int" >       94 </v>
  <v type="int" >       97 </v>
  <v type="int" >      102 </v>
  <v type="int" >       39 </v>
  <v type="int" >       29 </v>
  <v type="int" >       42 </v>
  <v type="int" >       17 </v>
  <v type="int" >       18 </v>
  <v type="int" >       10 </v>
  <v type="int" >        5 </v>
  <v type="int" >      107 </v>
  <v type="int" >       19 </v>
  <v type="int" >       13 </v>
  <v type="int" >       26 </v>
  <v type="int" >      105 </v>
  <v type="int" >      106 </v>
  <v type="int" >       35 </v>
  <v type="int" >       36 </v>
  <v type="int" >       23 </v>
  <v type="int" >       24 </v>
  <v type="int" >      119 </v>
  <v type="int" >       34 </v>
  <v type="int" >      103 </v>
  <v type="int" >      104 </v>
  <v type="int" >      109 </v>
  <v type="int" >      114 </v>
  <v type="int" >       93 </v>
  <v type="int" >       98 </v>
  <v type="int" >       43 </v>
  <v type="int" >       31 </v>
  <v type="int" >       49 </v>
  <v type="int" >       16 </v>
  <v type="int" >       28 </v>
  <v type="int" >       12 </v>
  <v type="int" >        6 </v>
  <v type="int" >        8 </v>
  <v type="int" >        9 </v>
  <v type="int" >       96 </v>
  <v type="int" >      100 </v>
  <v type="int" >       41 </v>
  <v type="int" >       30 </v>
  <v type="int" >       37 </v>
  <v type="int" >       38 </v>
  <v type="int" >      123 </v>
  <v type="int" >      124 </v>
  <v type="int" >       15 </v>
  <v type="int" >       27 </v>
  <v type="int" >       59 </v>
  <v type="int" >       47 </v>
  <v type="int" >      122 </v>
  <v type="int" >       53 </v>
  <v type="int" >       54 </v>
  <v type="int" >       46 </v>
  <v type="int" >       57 </v>
  <v type="int" >        3 </v>
  <v type="int" >        2 </v>
  <v type="int" >        4 </v>
  <v type="int" >      115 </v>
  <v type="int" >      111 </v>
  <v type="int" >       95 </v>
  <v type="int" >       99 </v>
  <v type="int" >       21 </v>
  <v type="int" >      113 </v>
  <v type="int" >      110 </v>
  <v type="int" >       32 </v>
  <v type="int" >       44 </v>
  <v type="int" >      117 </v>
  <v type="int" >      118 </v>
  <v type="int" >      101 </v>
  <v type="int" >       40 </v>
  <v type="int" >       20 </v>
  <v type="int" >      137 </v>
  <v type="int" >       55 </v>
  <v type="int" >      108 </v>
  <v type="int" >       33 </v>
  <v type="int" >       48 </v>
  <v type="int" >       60 </v>
  <v type="int" >       58 </v>
  <v type="int" >       45 </v>
  <v type="int" >      131 </v>
  <v type="int" >      127 </v>
  <v type="int" >      112 </v>
  <v type="int" >      116 </v>
  <v type="int" >       56 </v>
  <v type="int" >      133 </v>
  <v type="int" >      134 </v>
  <v type="int" >      120 </v>
  <v type="int" >       51 </v>
  <v type="int" >       52 </v>
  <v type="int" >      126 </v>
  <v type="int" >      129 </v>
  <v type="int" >       73 </v>
  <v type="int" >       62 </v>
  <v type="int" >       70 </v>
  <v type="int" >       50 </v>
  <v type="int" >      121 </v>
  <v type="int" >       67 </v>
  <v type="int" >       65 </v>
  <v type="int" >       66 </v>
  <v type="int" >      135 </v>
  <v type="int" >      128 </v>
  <v type="int" >      132 </v>
  <v type="int" >       71 </v>
  <v type="int" >       72 </v>
  <v type="int" >      130 </v>
  <v type="int" >      125 </v>
  <v type="int" >       61 </v>
  <v type="int" >       74 </v>
  <v type="int" >      136 </v>
  <v type="int" >      139 </v>
  <v type="int" >      140 </v>
  <v type="int" >       64 </v>
  <v type="int" >       76 </v>
  <v type="int" >      138 </v>
  <v type="int" >      145 </v>
  <v type="int" >      142 </v>
  <v type="int" >       63 </v>
  <v type="int" >       75 </v>
  <v type="int" >      150 </v>
  <v type="int" >       69 </v>
  <v type="int" >      155 </v>
  <v type="int" >      153 </v>
  <v type="int" >      154 </v>
  <v type="int" >       87 </v>
  <v type="int" >       68 </v>
  <v type="int" >       77 </v>
  <v type="int" >       90 </v>
  <v type="int" >      151 </v>
  <v type="int" >      152 </v>
  <v type="int" >      141 </v>
  <v type="int" >      146 </v>
  <v type="int" >       83 </v>
  <v type="int" >       84 </v>
  <v type="int" >      144 </v>
  <v type="int" >      148 </v>
  <v type="int" >       82 </v>
  <v type="int" >       91 </v>
  <v type="int" >       79 </v>
  <v type="int" >       89 </v>
  <v type="int" >       78 </v>
  <v type="int" >      143 </v>
  <v type="int" >      147 </v>
  <v type="int" >      167 </v>
  <v type="int" >       85 </v>
  <v type="int" >       86 </v>
  <v type="int" >      157 </v>
  <v type="int" >      162 </v>
  <v type="int" >      149 </v>
  <v type="int" >      171 </v>
  <v type="int" >      172 </v>
  <v type="int" >      156 </v>
  <v type="int" >       80 </v>
  <v type="int" >       92 </v>
  <v type="int" >      170 </v>
  <v type="int" >       88 </v>
  <v type="int" >      163 </v>
  <v type="int" >      159 </v>
  <v type="int" >       81 </v>
  <v type="int" >      161 </v>
  <v type="int" >      158 </v>
  <v type="int" >      165 </v>
  <v type="int" >      166 </v>
  <v type="int" >      160 </v>
  <v type="int" >      164 </v>
  <v type="int" >      168 </v>
  <v type="int" >      169 </v>
 </varray>
 <kpoints>
  <generation param="Gamma">
   <v type="int" name="divisions">       3        3        1 </v>
   <v name="usershift">      0.00000000       0.00000000       0.00000000 </v>
   <v name="genvec1">      0.33333333      -0.00000000       0.00000000 </v>
   <v name="genvec2">      0.00000000       0.33333333       0.00000000 </v>
   <v name="genvec3">      0.00000000       0.00000000       1.00000000 </v>
   <v name="shift">      0.00000000       0.00000000       0.00000000 </v>
  </generation>
  <varray name="kpointlist" >
   <v>       0.00000000       0.00000000       0.00000000 </v>
   <v>       0.33333333      -0.00000000       0.00000000 </v>
   <v>       0.00000000       0.33333333       0.00000000 </v>
   <v>       0.33333333       0.33333333       0.00000000 </v>
   <v>      -0.33333333       0.33333333       0.00000000 </v>
  </varray>
  <varray name="weights" >
   <v>       0.11111111 </v>
   <v>       0.22222222 </v>
   <v>       0.22222222 </v>
   <v>       0.22222222 </v>
   <v>       0.22222222 </v>
  </varray>
 </kpoints>
 <parameters>
  <separator name="general" >
   <i type="string" name="SYSTEM">unknown system</i>
   <i type="logical" name="LCOMPAT"> F  </i>
  </separator>
  <separator name="electronic" >
   <i type="string" name="PREC">a</i>
   <i name="ENMAX">    500.00000000</i>
   <i name="ENAUG">    462.75800000</i>
   <i name="EDIFF">      0.00000001</i>
   <i type="int" name="IALGO">    38</i>
   <i type="int" name="IWAVPR">    10</i>
   <i type="int" name="NBANDS">   924</i>
   <i name="NELECT">   1536.00000000</i>
   <i type="int" name="TURBO">     0</i>
   <i type="int" name="IRESTART">     0</i>
   <i type="int" name="NREBOOT">     0</i>
   <i type="int" name="NMIN">     0</i>
   <i name="EREF">      0.00000000</i>
   <separator name="electronic smearing" >
    <i type="int" name="ISMEAR">     0</i>
    <i name="SIGMA">      0.05000000</i>
    <i name="KSPACING">      0.50000000</i>
    <i type="logical" name="KGAMMA"> T  </i>
   </separator>
   <separator name="electronic projectors" >
    <i type="logical" name="LREAL"> F  </i>
    <v name="ROPT">      0.00000000      0.00000000      0.00000000</v>
    <i type="int" name="LMAXPAW">  -100</i>
    <i type="int" name="LMAXMIX">     2</i>
    <i type="logical" name="NLSPLINE"> F  </i>
   </separator>
   <separator name="electronic startup" >
    <i type="int" name="ISTART">     0</i>
    <i type="int" name="ICHARG">     2</i>
    <i type="int" name="INIWAV">     1</i>
   </separator>
   <separator name="electronic spin" >
    <i type="int" name="ISPIN">     1</i>
    <i type="logical" name="LNONCOLLINEAR"> F  </i>
    <v name="MAGMOM">      1.00000000      1.00000000      1.00000000      1.00000000      1.00000000      1.00000000      1.00000000      1.00000000      1.00000000      1.00000000      1.00000000      1.00000000      1.00000000      1.00000000      1.00000000      1.00000000      1.00000000      1.00000000      1.00000000      1.00000000
      1.00000000      1.00000000      1.00000000      1.00000000      1.00000000      1.00000000      1.00000000      1.00000000      1.00000000      1.00000000      1.00000000      1.00000000      1.00000000      1.00000000      1.00000000      1.00000000      1.00000000      1.00000000      1.00000000      1.00000000
      1.00000000      1.00000000      1.00000000      1.00000000      1.00000000      1.00000000      1.00000000      1.00000000      1.00000000      1.00000000      1.00000000      1.00000000      1.00000000      1.00000000      1.00000000      1.00000000      1.00000000      1.00000000      1.00000000      1.00000000
      1.00000000      1.00000000      1.00000000      1.00000000      1.00000000      1.00000000      1.00000000      1.00000000      1.00000000      1.00000000      1.00000000      1.00000000      1.00000000      1.00000000      1.00000000      1.00000000      1.00000000      1.00000000      1.00000000      1.00000000
      1.00000000      1.00000000      1.00000000      1.00000000      1.00000000      1.00000000      1.00000000      1.00000000      1.00000000      1.00000000      1.00000000      1.00000000      1.00000000      1.00000000      1.00000000      1.00000000      1.00000000      1.00000000      1.00000000      1.00000000
      1.00000000      1.00000000      1.00000000      1.00000000      1.00000000      1.00000000      1.00000000      1.00000000      1.00000000      1.00000000      1.00000000      1.00000000      1.00000000      1.00000000      1.00000000      1.00000000      1.00000000      1.00000000      1.00000000      1.00000000
      1.00000000      1.00000000      1.00000000      1.00000000      1.00000000      1.00000000      1.00000000      1.00000000      1.00000000      1.00000000      1.00000000      1.00000000      1.00000000      1.00000000      1.00000000      1.00000000      1.00000000      1.00000000      1.00000000      1.00000000
      1.00000000      1.00000000      1.00000000      1.00000000      1.00000000      1.00000000      1.00000000      1.00000000      1.00000000      1.00000000      1.00000000      1.00000000      1.00000000      1.00000000      1.00000000      1.00000000      1.00000000      1.00000000      1.00000000      1.00000000
      1.00000000      1.00000000      1.00000000      1.00000000      1.00000000      1.00000000      1.00000000      1.00000000      1.00000000      1.00000000      1.00000000      1.00000000</v>
    <i name="NUPDOWN">     -1.00000000</i>
    <i type="logical" name="LSORBIT"> F  </i>
    <v name="SAXIS">      0.00000000      0.00000000      1.00000000</v>
    <i type="logical" name="LSPIRAL"> F  </i>
    <v name="QSPIRAL">      0.00000000      0.00000000      0.00000000</v>
    <i type="logical" name="LZEROZ"> F  </i>
   </separator>
   <separator name="electronic exchange-correlation" >
    <i type="logical" name="LASPH"> F  </i>
    <i type="logical" name="LMETAGGA"> F  </i>
   </separator>
   <separator name="electronic convergence" >
    <i type="int" name="NELM">   300</i>
    <i type="int" name="NELMDL">    -5</i>
    <i type="int" name="NELMIN">     5</i>
    <i name="ENINI">    500.00000000</i>
    <separator name="electronic convergence detail" >
     <i type="logical" name="LDIAG"> T  </i>
     <i type="logical" name="LSUBROT"> F  </i>
     <i name="WEIMIN">      0.00000000</i>
     <i name="EBREAK">      0.00000000</i>
     <i name="DEPER">      0.30000000</i>
     <i type="int" name="NRMM">     4</i>
     <i name="TIME">      0.40000000</i>
    </separator>
   </separator>
   <separator name="electronic mixer" >
    <i name="AMIX">      0.40000000</i>
    <i name="BMIX">      1.00000000</i>
    <i name="AMIN">      0.10000000</i>
    <i name="AMIX_MAG">      1.60000000</i>
    <i name="BMIX_MAG">      1.00000000</i>
    <separator name="electronic mixer details" >
     <i type="int" name="IMIX">     4</i>
     <i type="logical" name="MIXFIRST"> F  </i>
     <i type="int" name="MAXMIX">   -45</i>
     <i name="WC">    100.00000000</i>
     <i type="int" name="INIMIX">     1</i>
     <i type="int" name="MIXPRE">     1</i>
     <i type="int" name="MREMOVE">     5</i>
    </separator>
   </separator>
   <separator name="electronic dipolcorrection" >
    <i type="logical" name="LDIPOL"> T  </i>
    <i type="logical" name="LMONO"> F  </i>
    <i type="int" name="IDIPOL">     3</i>
    <i name="EPSILON">      1.00000000</i>
    <v name="DIPOL">   -100.00000000   -100.00000000   -100.00000000</v>
    <i name="EFIELD">      0.00000000</i>
   </separator>
  </separator>
  <separator name="grids" >
   <i type="int" name="NGX">   126</i>
   <i type="int" name="NGY">   126</i>
   <i type="int" name="NGZ">   240</i>
   <i type="int" name="NGXF">   252</i>
   <i type="int" name="NGYF">   252</i>
   <i type="int" name="NGZF">   480</i>
   <i type="logical" name="ADDGRID"> T  </i>
  </separator>
  <separator name="ionic" >
   <i type="int" name="NSW">     0</i>
   <i type="int" name="IBRION">    -1</i>
   <i type="int" name="MDALGO">     0</i>
   <i type="int" name="ISIF">     2</i>
   <i name="PSTRESS">      0.00000000</i>
   <i name="EDIFFG">      0.00000010</i>
   <i type="int" name="NFREE">     0</i>
   <i name="POTIM">      0.50000000</i>
   <i name="SMASS">     -3.00000000</i>
   <i name="SCALEE">      1.00000000</i>
  </separator>
  <separator name="ionic md" >
   <i name="TEBEG">      0.00010000</i>
   <i name="TEEND">      0.00010000</i>
   <i type="int" name="NBLOCK">     1</i>
   <i type="int" name="KBLOCK">     1</i>
   <i type="int" name="NPACO">   256</i>
   <i name="APACO">     16.00000000</i>
  </separator>
  <separator name="symmetry" >
   <i type="int" name="ISYM">     2</i>
   <i name="SYMPREC">      0.00001000</i>
  </separator>
  <separator name="dos" >
   <i type="int" name="LORBIT">     0</i>
   <v name="RWIGS">     -1.00000000     -1.00000000     -1.00000000</v>
   <i type="int" name="NEDOS">   301</i>
   <i name="EMIN">     10.00000000</i>
   <i name="EMAX">    -10.00000000</i>
   <i name="EFERMI">      0.00000000</i>
  </separator>
  <separator name="writing" >
   <i type="int" name="NWRITE">     2</i>
   <i type="logical" name="LWAVE"> F  </i>
   <i type="logical" name="LDOWNSAMPLE"> F  </i>
   <i type="logical" name="LCHARG"> F  </i>
   <i type="logical" name="LPARD"> F  </i>
   <i type="logical" name="LVTOT"> F  </i>
   <i type="logical" name="LVHAR"> F  </i>
   <i type="logical" name="LELF"> F  </i>
   <i type="logical" name="LOPTICS"> F  </i>
   <v name="STM">      0.00000000      0.00000000      0.00000000      0.00000000      0.00000000      0.00000000      0.00000000</v>
  </separator>
  <separator name="performance" >
   <i type="int" name="NPAR">     4</i>
   <i type="int" name="NSIM">     4</i>
   <i type="int" name="NBLK">    -1</i>
   <i type="logical" name="LPLANE"> T  </i>
   <i type="logical" name="LSCALAPACK"> F  </i>
   <i type="logical" name="LSCAAWARE"> F  </i>
   <i type="logical" name="LSCALU"> F  </i>
   <i type="logical" name="LASYNC"> F  </i>
   <i type="logical" name="LORBITALREAL"> F  </i>
  </separator>
  <separator name="miscellaneous" >
   <i type="int" name="IDIOT">     3</i>
   <i type="int" name="ISPECIAL">     0</i>
   <i type="logical" name="LMUSIC"> F  </i>
   <v name="POMASS">    114.82000000     74.92200000      1.00000000</v>
   <v name="DARWINR">      0.00000000      0.00000000      0.00000000</v>
   <v name="DARWINV">      1.00000000      1.00000000      1.00000000</v>
   <i type="logical" name="LCORR"> T  </i>
  </separator>
  <i type="logical" name="GGA_COMPAT"> T  </i>
  <i type="logical" name="LBERRY"> F  </i>
  <i type="int" name="ICORELEVEL">     0</i>
  <i type="logical" name="LDAU"> F  </i>
  <i type="int" name="I_CONSTRAINED_M">     0</i>
  <separator name="electronic exchange-correlation" >
   <i type="string" name="GGA">--</i>
   <i type="int" name="VOSKOWN">     0</i>
   <i type="logical" name="LHFCALC"> F  </i>
   <i type="string" name="PRECFOCK"></i>
   <i type="logical" name="LSYMGRAD"> F  </i>
   <i type="logical" name="LHFONE"> F  </i>
   <i type="logical" name="LRHFCALC"> F  </i>
   <i type="logical" name="LTHOMAS"> F  </i>
   <i type="logical" name="LMODELHF"> F  </i>
   <i name="ENCUT4O">     -1.00000000</i>
   <i type="int" name="EXXOEP">     0</i>
   <i type="int" name="FOURORBIT">     0</i>
   <i name="AEXX">      0.00000000</i>
   <i name="HFALPHA">      0.00000000</i>
   <i name="MCALPHA">      0.00000000</i>
   <i name="ALDAX">      1.00000000</i>
   <i name="AGGAX">      1.00000000</i>
   <i name="ALDAC">      1.00000000</i>
   <i name="AGGAC">      1.00000000</i>
   <i type="int" name="NKREDX">     1</i>
   <i type="int" name="NKREDY">     1</i>
   <i type="int" name="NKREDZ">     1</i>
   <i type="logical" name="SHIFTRED"> F  </i>
   <i type="logical" name="ODDONLY"> F  </i>
   <i type="logical" name="EVENONLY"> F  </i>
   <i type="int" name="LMAXFOCK">     0</i>
   <i type="int" name="NMAXFOCKAE">     0</i>
   <i type="logical" name="LFOCKAEDFT"> F  </i>
   <i name="HFSCREEN">      0.00000000</i>
   <i name="HFSCREENC">      0.00000000</i>
   <i type="int" name="NBANDSGWLOW">     0</i>
  </separator>
  <separator name="vdW DFT" >
   <i type="logical" name="LUSE_VDW"> F  </i>
   <i name="Zab_VDW">     -0.84910000</i>
   <i name="PARAM1">      0.12340000</i>
   <i name="PARAM2">      1.00000000</i>
   <i name="PARAM3">      0.00000000</i>
  </separator>
  <separator name="model GW" >
   <i type="int" name="MODEL_GW">     0</i>
   <i name="MODEL_EPS0">     27.43253559</i>
   <i name="MODEL_ALPHA">      1.00000000</i>
  </separator>
  <separator name="linear response parameters" >
   <i type="logical" name="LEPSILON"> F  </i>
   <i type="logical" name="LRPA"> F  </i>
   <i type="logical" name="LNABLA"> F  </i>
   <i type="logical" name="LVEL"> F  </i>
   <i type="int" name="KINTER">     0</i>
   <i name="CSHIFT">      0.10000000</i>
   <i name="OMEGAMAX">     -1.00000000</i>
   <i name="DEG_THRESHOLD">      0.00200000</i>
   <i name="RTIME">     -0.10000000</i>
   <i name="WPLASMAI">      0.00000000</i>
   <v name="DFIELD">      0.00000000      0.00000000      0.00000000</v>
   <v name="WPLASMA">      0.00000000      0.00000000      0.00000000      0.00000000      0.00000000      0.00000000      0.00000000      0.00000000      0.00000000</v>
  </separator>
  <separator name="orbital magnetization" >
   <i type="logical" name="NUCIND"> F  </i>
   <v name="MAGPOS">      0.00000000      0.00000000      0.00000000</v>
   <i type="logical" name="LNICSALL"> T  </i>
   <i type="logical" name="ORBITALMAG"> F  </i>
   <i type="logical" name="LMAGBLOCH"> F  </i>
   <i type="logical" name="LCHIMAG"> F  </i>
   <i type="logical" name="LGAUGE"> T  </i>
   <i type="int" name="MAGATOM">     0</i>
   <v name="MAGDIPOL">      0.00000000      0.00000000      0.00000000</v>
   <v name="AVECCONST">      0.00000000      0.00000000      0.00000000</v>
  </separator>
  <separator name="response functions" >
   <i type="logical" name="LADDER"> F  </i>
   <i type="logical" name="LRPAFORCE"> F  </i>
   <i type="logical" name="LFXC"> F  </i>
   <i type="logical" name="LHARTREE"> T  </i>
   <i type="int" name="IBSE">     0</i>
   <v type="int" name="KPOINT">    -1     0     0     0</v>
   <i type="logical" name="LTCTE"> F  </i>
   <i type="logical" name="LTETE"> F  </i>
   <i type="logical" name="LTRIPLET"> F  </i>
   <i type="logical" name="LFXCEPS"> F  </i>
   <i type="logical" name="LFXHEG"> F  </i>
   <i type="int" name="NATURALO">     2</i>
   <i type="logical" name="L2ORDER"> F  </i>
   <i type="logical" name="LMP2LT"> F  </i>
   <i type="logical" name="LUSEW"> F  </i>
   <i name="ENCUTGW">     -2.00000000</i>
   <i name="ENCUTGWSOFT">     -2.00000000</i>
   <i name="ENCUTLF">     -1.00000000</i>
   <i type="int" name="LMAXMP2">    -1</i>
   <i name="SCISSOR">      0.00000000</i>
   <i type="int" name="NOMEGA">     0</i>
   <i type="int" name="NOMEGAR">     0</i>
   <i type="int" name="NBANDSGW">    -1</i>
   <i type="int" name="NBANDSO">    -1</i>
   <i type="int" name="NBANDSV">    -1</i>
   <i type="int" name="NELM">   300</i>
   <i type="int" name="NELMHF">     1</i>
   <i type="int" name="DIM">     3</i>
   <i type="int" name="ANTIRES">     0</i>
   <i name="OMEGAMAX">    -30.00000000</i>
   <i name="OMEGAMIN">    -30.00000000</i>
   <i name="OMEGATL">   -200.00000000</i>
   <i type="int" name="OMEGAGRID">   140</i>
   <i name="CSHIFT">     -0.10000000</i>
   <i type="logical" name="SELFENERGY"> F  </i>
   <i type="logical" name="LSPECTRAL"> F  </i>
   <i type="logical" name="LSPECTRALGW"> F  </i>
   <i type="logical" name="LSINGLES"> F  </i>
   <i type="logical" name="LFERMIGW"> F  </i>
   <i type="logical" name="ODDONLYGW"> F  </i>
   <i type="logical" name="EVENONLYGW"> F  </i>
   <i type="int" name="NKREDLFX">     1</i>
   <i type="int" name="NKREDLFY">     1</i>
   <i type="int" name="NKREDLFZ">     1</i>
   <i type="int" name="MAXMEM">  2800</i>
   <i type="int" name="TELESCOPE">     0</i>
   <i type="int" name="TAUPAR">     1</i>
   <i type="int" name="OMEGAPAR">    -1</i>
   <i name="LAMBDA">      1.00000000</i>
  </separator>
  <separator name="External order field" >
   <i name="OFIELD_KAPPA">      0.00000000</i>
   <v name="OFIELD_K">      0.00000000      0.00000000      0.00000000</v>
   <i name="OFIELD_Q6_NEAR">      0.00000000</i>
   <i name="OFIELD_Q6_FAR">      0.00000000</i>
   <i name="OFIELD_A">      0.00000000</i>
  </separator>
 </parameters>
 <atominfo>
  <atoms>     172 </atoms>
  <types>       3 </types>
  <array name="atoms" >
   <dimension dim="1">ion</dimension>
   <field type="string">element</field>
   <field type="int">atomtype</field>
   <set>
    <rc><c>In</c><c>   1</c></rc>
    <rc><c>In</c><c>   1</c></rc>
    <rc><c>In</c><c>   1</c></rc>
    <rc><c>In</c><c>   1</c></rc>
    <rc><c>In</c><c>   1</c></rc>
    <rc><c>In</c><c>   1</c></rc>
    <rc><c>In</c><c>   1</c></rc>
    <rc><c>In</c><c>   1</c></rc>
    <rc><c>In</c><c>   1</c></rc>
    <rc><c>In</c><c>   1</c></rc>
    <rc><c>In</c><c>   1</c></rc>
    <rc><c>In</c><c>   1</c></rc>
    <rc><c>In</c><c>   1</c></rc>
    <rc><c>In</c><c>   1</c></rc>
    <rc><c>In</c><c>   1</c></rc>
    <rc><c>In</c><c>   1</c></rc>
    <rc><c>In</c><c>   1</c></rc>
    <rc><c>In</c><c>   1</c></rc>
    <rc><c>In</c><c>   1</c></rc>
    <rc><c>In</c><c>   1</c></rc>
    <rc><c>In</c><c>   1</c></rc>
    <rc><c>In</c><c>   1</c></rc>
    <rc><c>In</c><c>   1</c></rc>
    <rc><c>In</c><c>   1</c></rc>
    <rc><c>In</c><c>   1</c></rc>
    <rc><c>In</c><c>   1</c></rc>
    <rc><c>In</c><c>   1</c></rc>
    <rc><c>In</c><c>   1</c></rc>
    <rc><c>In</c><c>   1</c></rc>
    <rc><c>In</c><c>   1</c></rc>
    <rc><c>In</c><c>   1</c></rc>
    <rc><c>In</c><c>   1</c></rc>
    <rc><c>In</c><c>   1</c></rc>
    <rc><c>In</c><c>   1</c></rc>
    <rc><c>In</c><c>   1</c></rc>
    <rc><c>In</c><c>   1</c></rc>
    <rc><c>In</c><c>   1</c></rc>
    <rc><c>In</c><c>   1</c></rc>
    <rc><c>In</c><c>   1</c></rc>
    <rc><c>In</c><c>   1</c></rc>
    <rc><c>In</c><c>   1</c></rc>
    <rc><c>In</c><c>   1</c></rc>
    <rc><c>In</c><c>   1</c></rc>
    <rc><c>In</c><c>   1</c></rc>
    <rc><c>In</c><c>   1</c></rc>
    <rc><c>In</c><c>   1</c></rc>
    <rc><c>In</c><c>   1</c></rc>
    <rc><c>In</c><c>   1</c></rc>
    <rc><c>In</c><c>   1</c></rc>
    <rc><c>In</c><c>   1</c></rc>
    <rc><c>In</c><c>   1</c></rc>
    <rc><c>In</c><c>   1</c></rc>
    <rc><c>In</c><c>   1</c></rc>
    <rc><c>In</c><c>   1</c></rc>
    <rc><c>In</c><c>   1</c></rc>
    <rc><c>In</c><c>   1</c></rc>
    <rc><c>In</c><c>   1</c></rc>
    <rc><c>In</c><c>   1</c></rc>
    <rc><c>In</c><c>   1</c></rc>
    <rc><c>In</c><c>   1</c></rc>
    <rc><c>In</c><c>   1</c></rc>
    <rc><c>In</c><c>   1</c></rc>
    <rc><c>In</c><c>   1</c></rc>
    <rc><c>In</c><c>   1</c></rc>
    <rc><c>In</c><c>   1</c></rc>
    <rc><c>In</c><c>   1</c></rc>
    <rc><c>In</c><c>   1</c></rc>
    <rc><c>In</c><c>   1</c></rc>
    <rc><c>In</c><c>   1</c></rc>
    <rc><c>In</c><c>   1</c></rc>
    <rc><c>In</c><c>   1</c></rc>
    <rc><c>In</c><c>   1</c></rc>
    <rc><c>In</c><c>   1</c></rc>
    <rc><c>In</c><c>   1</c></rc>
    <rc><c>In</c><c>   1</c></rc>
    <rc><c>In</c><c>   1</c></rc>
    <rc><c>In</c><c>   1</c></rc>
    <rc><c>In</c><c>   1</c></rc>
    <rc><c>In</c><c>   1</c></rc>
    <rc><c>In</c><c>   1</c></rc>
    <rc><c>In</c><c>   1</c></rc>
    <rc><c>In</c><c>   1</c></rc>
    <rc><c>In</c><c>   1</c></rc>
    <rc><c>In</c><c>   1</c></rc>
    <rc><c>In</c><c>   1</c></rc>
    <rc><c>In</c><c>   1</c></rc>
    <rc><c>In</c><c>   1</c></rc>
    <rc><c>In</c><c>   1</c></rc>
    <rc><c>In</c><c>   1</c></rc>
    <rc><c>In</c><c>   1</c></rc>
    <rc><c>In</c><c>   1</c></rc>
    <rc><c>In</c><c>   1</c></rc>
    <rc><c>As</c><c>   2</c></rc>
    <rc><c>As</c><c>   2</c></rc>
    <rc><c>As</c><c>   2</c></rc>
    <rc><c>As</c><c>   2</c></rc>
    <rc><c>As</c><c>   2</c></rc>
    <rc><c>As</c><c>   2</c></rc>
    <rc><c>As</c><c>   2</c></rc>
    <rc><c>As</c><c>   2</c></rc>
    <rc><c>As</c><c>   2</c></rc>
    <rc><c>As</c><c>   2</c></rc>
    <rc><c>As</c><c>   2</c></rc>
    <rc><c>As</c><c>   2</c></rc>
    <rc><c>As</c><c>   2</c></rc>
    <rc><c>As</c><c>   2</c></rc>
    <rc><c>As</c><c>   2</c></rc>
    <rc><c>As</c><c>   2</c></rc>
    <rc><c>As</c><c>   2</c></rc>
    <rc><c>As</c><c>   2</c></rc>
    <rc><c>As</c><c>   2</c></rc>
    <rc><c>As</c><c>   2</c></rc>
    <rc><c>As</c><c>   2</c></rc>
    <rc><c>As</c><c>   2</c></rc>
    <rc><c>As</c><c>   2</c></rc>
    <rc><c>As</c><c>   2</c></rc>
    <rc><c>As</c><c>   2</c></rc>
    <rc><c>As</c><c>   2</c></rc>
    <rc><c>As</c><c>   2</c></rc>
    <rc><c>As</c><c>   2</c></rc>
    <rc><c>As</c><c>   2</c></rc>
    <rc><c>As</c><c>   2</c></rc>
    <rc><c>As</c><c>   2</c></rc>
    <rc><c>As</c><c>   2</c></rc>
    <rc><c>As</c><c>   2</c></rc>
    <rc><c>As</c><c>   2</c></rc>
    <rc><c>As</c><c>   2</c></rc>
    <rc><c>As</c><c>   2</c></rc>
    <rc><c>As</c><c>   2</c></rc>
    <rc><c>As</c><c>   2</c></rc>
    <rc><c>As</c><c>   2</c></rc>
    <rc><c>As</c><c>   2</c></rc>
    <rc><c>As</c><c>   2</c></rc>
    <rc><c>As</c><c>   2</c></rc>
    <rc><c>As</c><c>   2</c></rc>
    <rc><c>As</c><c>   2</c></rc>
    <rc><c>As</c><c>   2</c></rc>
    <rc><c>As</c><c>   2</c></rc>
    <rc><c>As</c><c>   2</c></rc>
    <rc><c>As</c><c>   2</c></rc>
    <rc><c>As</c><c>   2</c></rc>
    <rc><c>As</c><c>   2</c></rc>
    <rc><c>As</c><c>   2</c></rc>
    <rc><c>As</c><c>   2</c></rc>
    <rc><c>As</c><c>   2</c></rc>
    <rc><c>As</c><c>   2</c></rc>
    <rc><c>As</c><c>   2</c></rc>
    <rc><c>As</c><c>   2</c></rc>
    <rc><c>As</c><c>   2</c></rc>
    <rc><c>As</c><c>   2</c></rc>
    <rc><c>As</c><c>   2</c></rc>
    <rc><c>As</c><c>   2</c></rc>
    <rc><c>As</c><c>   2</c></rc>
    <rc><c>As</c><c>   2</c></rc>
    <rc><c>As</c><c>   2</c></rc>
    <rc><c>As</c><c>   2</c></rc>
    <rc><c>H </c><c>   3</c></rc>
    <rc><c>H </c><c>   3</c></rc>
    <rc><c>H </c><c>   3</c></rc>
    <rc><c>H </c><c>   3</c></rc>
    <rc><c>H </c><c>   3</c></rc>
    <rc><c>H </c><c>   3</c></rc>
    <rc><c>H </c><c>   3</c></rc>
    <rc><c>H </c><c>   3</c></rc>
    <rc><c>H </c><c>   3</c></rc>
    <rc><c>H </c><c>   3</c></rc>
    <rc><c>H </c><c>   3</c></rc>
    <rc><c>H </c><c>   3</c></rc>
    <rc><c>H </c><c>   3</c></rc>
    <rc><c>H </c><c>   3</c></rc>
    <rc><c>H </c><c>   3</c></rc>
    <rc><c>H </c><c>   3</c></rc>
   </set>
  </array>
  <array name="atomtypes" >
   <dimension dim="1">type</dimension>
   <field type="int">atomspertype</field>
   <field type="string">element</field>
   <field>mass</field>
   <field>valence</field>
   <field type="string">pseudopotential</field>
   <set>
    <rc><c>  92</c><c>In</c><c>    114.82000000</c><c>     13.00000000</c><c> PAW In_d 11Feb1998                     </c></rc>
    <rc><c>  64</c><c>As</c><c>     74.92200000</c><c>      5.00000000</c><c> PAW As 03Mar1998                       </c></rc>
    <rc><c>  16</c><c>H </c><c>      1.00000000</c><c>      1.25000000</c><c> PAW H1.25 14Feb2000                    </c></rc>
   </set>
  </array>
 </atominfo>
 <structure name="initialpos" >
  <crystal>
   <varray name="basis" >
    <v>      17.03433609       0.00000000       0.00000000 </v>
    <v>      -8.51716805      14.75216779       0.00000000 </v>
    <v>       0.00000000       0.00000000      31.29407310 </v>
   </varray>
   <i name="volume">   7863.99353597 </i>
   <varray name="rec_basis" >
    <v>       0.05870496       0.03389332       0.00000000 </v>
    <v>       0.00000000       0.06778665       0.00000000 </v>
    <v>       0.00000000       0.00000000       0.03195493 </v>
   </varray>
  </crystal>
  <varray name="positions" >
   <v>       0.04889542       0.39944771       0.99568253 </v>
   <v>       0.04889542       0.89944771       0.99568253 </v>
   <v>       0.54889542       0.39944771       0.99568253 </v>
   <v>       0.54889542       0.89944771       0.99568253 </v>
   <v>       0.35055229       0.39944771       0.99568253 </v>
   <v>       0.35055229       0.89944771       0.99568253 </v>
   <v>       0.85055229       0.39944771       0.99568253 </v>
   <v>       0.85055229       0.89944771       0.99568253 </v>
   <v>       0.35055229       0.20110457       0.99568253 </v>
   <v>       0.35055229       0.70110457       0.99568253 </v>
   <v>       0.85055229       0.20110457       0.99568253 </v>
   <v>       0.85055229       0.70110457       0.99568253 </v>
   <v>       0.02661586       0.05323172       0.99490245 </v>
   <v>       0.02661586       0.55323172       0.99490245 </v>
   <v>       0.52661586       0.05323172       0.99490245 </v>
   <v>       0.52661586       0.55323172       0.99490245 </v>
   <v>       0.19676828       0.22338414       0.99490245 </v>
   <v>       0.19676828       0.72338414       0.99490245 </v>
   <v>       0.69676828       0.22338414       0.99490245 </v>
   <v>       0.69676828       0.72338414       0.99490245 </v>
   <v>       0.25083021       0.00000000       0.99538266 </v>
   <v>       0.25000000       0.50000000       0.99493075 </v>
   <v>       0.75000000       0.00000000       0.99493075 </v>
   <v>       0.75000000       0.50000000       0.99493075 </v>
   <v>       0.02661586       0.22338414       0.99490245 </v>
   <v>       0.02661586       0.72338414       0.99490245 </v>
   <v>       0.52661586       0.22338414       0.99490245 </v>
   <v>       0.52661586       0.72338414       0.99490245 </v>
   <v>       0.16687125       0.33374251       0.11114905 </v>
   <v>       0.16687125       0.83374251       0.11114905 </v>
   <v>       0.66687125       0.33374251       0.11114905 </v>
   <v>       0.66687125       0.83374251       0.11114905 </v>
   <v>       0.41625749       0.08312875       0.11114905 </v>
   <v>       0.41625749       0.58312875       0.11114905 </v>
   <v>       0.91625749       0.08312875       0.11114905 </v>
   <v>       0.91625749       0.58312875       0.11114905 </v>
   <v>       0.41666666       0.33333334       0.10951073 </v>
   <v>       0.41666666       0.83333334       0.10951073 </v>
   <v>       0.91666666       0.33333334       0.10951073 </v>
   <v>       0.91666666       0.83333334       0.10951073 </v>
   <v>       0.16687125       0.08312875       0.11114905 </v>
   <v>       0.16687125       0.58312875       0.11114905 </v>
   <v>       0.66687125       0.08312875       0.11114905 </v>
   <v>       0.66687125       0.58312875       0.11114905 </v>
   <v>       0.33333334       0.16666667       0.22222222 </v>
   <v>       0.33333334       0.66666667       0.22222222 </v>
   <v>       0.83333334       0.16666667       0.22222222 </v>
   <v>       0.83333334       0.66666667       0.22222222 </v>
   <v>       0.08333331       0.41666666       0.22222222 </v>
   <v>       0.08333331       0.91666666       0.22222222 </v>
   <v>       0.58333331       0.41666666       0.22222222 </v>
   <v>       0.58333331       0.91666666       0.22222222 </v>
   <v>       0.08333331       0.16666669       0.22222222 </v>
   <v>       0.08333331       0.66666669       0.22222222 </v>
   <v>       0.58333331       0.16666669       0.22222222 </v>
   <v>       0.58333331       0.66666669       0.22222222 </v>
   <v>       0.33333334       0.41666666       0.22222222 </v>
   <v>       0.33333334       0.91666666       0.22222222 </v>
   <v>       0.83333334       0.41666666       0.22222222 </v>
   <v>       0.83333334       0.91666666       0.22222222 </v>
   <v>       0.00000000       0.00000000       0.33333334 </v>
   <v>       0.00000000       0.50000000       0.33333334 </v>
   <v>       0.50000000       0.00000000       0.33333334 </v>
   <v>       0.50000000       0.50000000       0.33333334 </v>
   <v>       0.25000000       0.25000000       0.33333334 </v>
   <v>       0.25000000       0.75000000       0.33333334 </v>
   <v>       0.75000000       0.25000000       0.33333334 </v>
   <v>       0.75000000       0.75000000       0.33333334 </v>
   <v>       0.25000000       0.00000000       0.33333334 </v>
   <v>       0.25000000       0.50000000       0.33333334 </v>
   <v>       0.75000000       0.00000000       0.33333334 </v>
   <v>       0.75000000       0.50000000       0.33333334 </v>
   <v>       0.00000000       0.25000000       0.33333334 </v>
   <v>       0.00000000       0.75000000       0.33333334 </v>
   <v>       0.50000000       0.25000000       0.33333334 </v>
   <v>       0.50000000       0.75000000       0.33333334 </v>
   <v>       0.16666667       0.33333334       0.44444445 </v>
   <v>       0.16666667       0.83333334       0.44444445 </v>
   <v>       0.66666667       0.33333334       0.44444445 </v>
   <v>       0.66666667       0.83333334       0.44444445 </v>
   <v>       0.41666666       0.08333334       0.44444445 </v>
   <v>       0.41666666       0.58333334       0.44444445 </v>
   <v>       0.91666666       0.08333334       0.44444445 </v>
   <v>       0.91666666       0.58333334       0.44444445 </v>
   <v>       0.41666666       0.33333334       0.44444445 </v>
   <v>       0.41666666       0.83333334       0.44444445 </v>
   <v>       0.91666666       0.33333334       0.44444445 </v>
   <v>       0.91666666       0.83333334       0.44444445 </v>
   <v>       0.16666667       0.08333334       0.44444445 </v>
   <v>       0.16666667       0.58333334       0.44444445 </v>
   <v>       0.66666667       0.08333334       0.44444445 </v>
   <v>       0.66666667       0.58333334       0.44444445 </v>
   <v>       0.00060404       0.00120809       0.07927097 </v>
   <v>       0.00060404       0.50120809       0.07927097 </v>
   <v>       0.50060404       0.00120809       0.07927097 </v>
   <v>       0.50060404       0.50120809       0.07927097 </v>
   <v>       0.00060404       0.24939596       0.07927100 </v>
   <v>       0.00060404       0.74939596       0.07927100 </v>
   <v>       0.50060404       0.24939596       0.07927100 </v>
   <v>       0.50060404       0.74939596       0.07927100 </v>
   <v>       0.25000000       0.00000000       0.08094485 </v>
   <v>       0.25000000       0.50000000       0.08094485 </v>
   <v>       0.75000000       0.00000000       0.08094485 </v>
   <v>       0.75000000       0.50000000       0.08094485 </v>
   <v>       0.24879191       0.24939596       0.07927100 </v>
   <v>       0.24879191       0.74939596       0.07927100 </v>
   <v>       0.74879191       0.24939596       0.07927100 </v>
   <v>       0.74879191       0.74939596       0.07927100 </v>
   <v>       0.16660331       0.33320661       0.19452973 </v>
   <v>       0.16660331       0.83320661       0.19452973 </v>
   <v>       0.66660331       0.33320661       0.19452973 </v>
   <v>       0.66660331       0.83320661       0.19452973 </v>
   <v>       0.16660331       0.08339670       0.19452973 </v>
   <v>       0.16660331       0.58339670       0.19452973 </v>
   <v>       0.66660331       0.08339670       0.19452973 </v>
   <v>       0.66660331       0.58339670       0.19452973 </v>
   <v>       0.41666666       0.33333334       0.19342860 </v>
   <v>       0.41666666       0.83333334       0.19342860 </v>
   <v>       0.91666666       0.33333334       0.19342860 </v>
   <v>       0.91666666       0.83333334       0.19342860 </v>
   <v>       0.41679339       0.08339670       0.19452973 </v>
   <v>       0.41679339       0.58339670       0.19452973 </v>
   <v>       0.91679339       0.08339670       0.19452973 </v>
   <v>       0.91679339       0.58339670       0.19452973 </v>
   <v>       0.33333334       0.16666667       0.30555555 </v>
   <v>       0.33333334       0.66666667       0.30555555 </v>
   <v>       0.83333334       0.16666667       0.30555555 </v>
   <v>       0.83333334       0.66666667       0.30555555 </v>
   <v>       0.33333334       0.41666666       0.30555555 </v>
   <v>       0.33333334       0.91666666       0.30555555 </v>
   <v>       0.83333334       0.41666666       0.30555555 </v>
   <v>       0.83333334       0.91666666       0.30555555 </v>
   <v>       0.08333331       0.16666669       0.30555555 </v>
   <v>       0.08333331       0.66666669       0.30555555 </v>
   <v>       0.58333331       0.16666669       0.30555555 </v>
   <v>       0.58333331       0.66666669       0.30555555 </v>
   <v>       0.08333331       0.41666666       0.30555555 </v>
   <v>       0.08333331       0.91666666       0.30555555 </v>
   <v>       0.58333331       0.41666666       0.30555555 </v>
   <v>       0.58333331       0.91666666       0.30555555 </v>
   <v>       0.00000000       0.00000000       0.41666666 </v>
   <v>       0.00000000       0.50000000       0.41666666 </v>
   <v>       0.50000000       0.00000000       0.41666666 </v>
   <v>       0.50000000       0.50000000       0.41666666 </v>
   <v>       0.00000000       0.25000000       0.41666666 </v>
   <v>       0.00000000       0.75000000       0.41666666 </v>
   <v>       0.50000000       0.25000000       0.41666666 </v>
   <v>       0.50000000       0.75000000       0.41666666 </v>
   <v>       0.25000000       0.00000000       0.41666666 </v>
   <v>       0.25000000       0.50000000       0.41666666 </v>
   <v>       0.75000000       0.00000000       0.41666666 </v>
   <v>       0.75000000       0.50000000       0.41666666 </v>
   <v>       0.25000000       0.25000000       0.41666666 </v>
   <v>       0.25000000       0.75000000       0.41666666 </v>
   <v>       0.75000000       0.25000000       0.41666666 </v>
   <v>       0.75000000       0.75000000       0.41666666 </v>
   <v>       0.16666667       0.33333334       0.50007080 </v>
   <v>       0.16666667       0.83333334       0.50007080 </v>
   <v>       0.66666667       0.33333334       0.50007080 </v>
   <v>       0.66666667       0.83333334       0.50007080 </v>
   <v>       0.16666667       0.08333334       0.50007080 </v>
   <v>       0.16666667       0.58333334       0.50007080 </v>
   <v>       0.66666667       0.08333334       0.50007080 </v>
   <v>       0.66666667       0.58333334       0.50007080 </v>
   <v>       0.41666666       0.33333334       0.50007080 </v>
   <v>       0.41666666       0.83333334       0.50007080 </v>
   <v>       0.91666666       0.33333334       0.50007080 </v>
   <v>       0.91666666       0.83333334       0.50007080 </v>
   <v>       0.41666666       0.08333334       0.50007080 </v>
   <v>       0.41666666       0.58333334       0.50007080 </v>
   <v>       0.91666666       0.08333334       0.50007080 </v>
   <v>       0.91666666       0.58333334       0.50007080 </v>
  </varray>
 </structure>
 <calculation>
  <scstep>
   <time name="dav">  488.67  489.43</time>
   <time name="total">  489.39  490.17</time>
   <dipole>
    <v name="dipole">      0.00000000       0.00000000      -0.00133694 </v>
    <i name="Tr[quadrupol]"> -74895.82834437 </i>
    <i name="Echarged">      0.00000000 </i>
    <i name="Edipol_quadrupol">      0.00000000 </i>
    <i name="Eion">      0.00000000 </i>
   </dipole>
   <energy>
    <i name="alphaZ">   1768.57130506 </i>
    <i name="ewald"> 318744.49024600 </i>
    <i name="hartreedc">-467321.33884231 </i>
    <i name="XCdc">   3216.69837806 </i>
    <i name="pawpsdc"> 116446.47017590 </i>
    <i name="pawaedc">-114544.52040592 </i>
    <i name="eentropy">     -0.04520643 </i>
    <i name="bandstr">    626.19120026 </i>
    <i name="atom"> 156698.92270065 </i>
    <i name="e_fr_energy">  15635.43955128 </i>
    <i name="e_wo_entrp">  15635.48475771 </i>
    <i name="e_0_energy">  15635.46215449 </i>
   </energy>
  </scstep>
  <scstep>
   <time name="dav">  515.07  515.95</time>
   <time name="total">  515.08  515.97</time>
   <dipole>
    <v name="dipole">      0.00000000       0.00000000      -0.00133694 </v>
    <i name="Tr[quadrupol]"> -74895.82834437 </i>
    <i name="Echarged">      0.00000000 </i>
    <i name="Edipol_quadrupol">      0.00000000 </i>
    <i name="Eion">      0.00000000 </i>
   </dipole>
   <energy>
    <i name="e_fr_energy">   1763.85499212 </i>
    <i name="e_wo_entrp">   1763.89808066 </i>
    <i name="e_0_energy">   1763.87653639 </i>
   </energy>
  </scstep>
  <scstep>
   <time name="dav">  522.44  523.37</time>
   <time name="total">  522.46  523.39</time>
   <dipole>
    <v name="dipole">      0.00000000       0.00000000      -0.00133694 </v>
    <i name="Tr[quadrupol]"> -74895.82834437 </i>
    <i name="Echarged">      0.00000000 </i>
    <i name="Edipol_quadrupol">      0.00000000 </i>
    <i name="Eion">      0.00000000 </i>
   </dipole>
   <energy>
    <i name="e_fr_energy">   -526.20892781 </i>
    <i name="e_wo_entrp">   -526.19805050 </i>
    <i name="e_0_energy">   -526.20348915 </i>
   </energy>
  </scstep>
  <scstep>
   <time name="dav">  536.42  537.38</time>
   <time name="total">  536.44  537.40</time>
   <dipole>
    <v name="dipole">      0.00000000       0.00000000      -0.00133694 </v>
    <i name="Tr[quadrupol]"> -74895.82834437 </i>
    <i name="Echarged">      0.00000000 </i>
    <i name="Edipol_quadrupol">      0.00000000 </i>
    <i name="Eion">      0.00000000 </i>
   </dipole>
   <energy>
    <i name="e_fr_energy">   -721.67022721 </i>
    <i name="e_wo_entrp">   -721.65276305 </i>
    <i name="e_0_energy">   -721.66149513 </i>
   </energy>
  </scstep>
  <scstep>
   <time name="dav">  564.86  565.80</time>
   <time name="total">  571.33  572.29</time>
   <dipole>
    <v name="dipole">      0.00000000       0.00000000      -0.00133694 </v>
    <i name="Tr[quadrupol]"> -74895.82834437 </i>
    <i name="Echarged">      0.00000000 </i>
    <i name="Edipol_quadrupol">      0.00000000 </i>
    <i name="Eion">      0.00000000 </i>
   </dipole>
   <energy>
    <i name="e_fr_energy">   -730.87371867 </i>
    <i name="e_wo_entrp">   -730.85598578 </i>
    <i name="e_0_energy">   -730.86485222 </i>
   </energy>
  </scstep>
  <scstep>
   <time name="dav">  596.78  597.71</time>
   <time name="total">  603.82  604.76</time>
   <dipole>
    <v name="dipole">      0.00000000       0.00000000       1.73334097 </v>
    <i name="Tr[quadrupol]"> -74912.02480393 </i>
    <i name="Echarged">      0.00000000 </i>
    <i name="Edipol_quadrupol">      0.00000000 </i>
    <i name="Eion">      0.00000000 </i>
   </dipole>
   <energy>
    <i name="e_fr_energy">   -706.93070234 </i>
    <i name="e_wo_entrp">   -706.92125115 </i>
    <i name="e_0_energy">   -706.92597675 </i>
   </energy>
  </scstep>
  <scstep>
   <time name="dav">  625.87  626.96</time>
   <time name="total">  632.85  633.95</time>
   <dipole>
    <v name="dipole">      0.00000000       0.00000000       0.19107337 </v>
    <i name="Tr[quadrupol]"> -74915.41890643 </i>
    <i name="Echarged">      0.00000000 </i>
    <i name="Edipol_quadrupol">      0.00000000 </i>
    <i name="Eion">      0.00000000 </i>
   </dipole>
   <energy>
    <i name="e_fr_energy">   -703.74654585 </i>
    <i name="e_wo_entrp">   -703.73494237 </i>
    <i name="e_0_energy">   -703.74074411 </i>
   </energy>
  </scstep>
  <scstep>
   <time name="dav">  600.54  601.57</time>
   <time name="total">  607.42  608.46</time>
   <dipole>
    <v name="dipole">      0.00000000       0.00000000       1.34967018 </v>
    <i name="Tr[quadrupol]"> -74920.51475884 </i>
    <i name="Echarged">      0.00000000 </i>
    <i name="Edipol_quadrupol">      0.00000000 </i>
    <i name="Eion">      0.00000000 </i>
   </dipole>
   <energy>
    <i name="e_fr_energy">   -703.81801787 </i>
    <i name="e_wo_entrp">   -703.80996349 </i>
    <i name="e_0_energy">   -703.81399068 </i>
   </energy>
  </scstep>
  <scstep>
   <time name="dav">  589.73  590.72</time>
   <time name="total">  596.94  597.94</time>
   <dipole>
    <v name="dipole">      0.00000000       0.00000000       1.12298128 </v>
    <i name="Tr[quadrupol]"> -74926.13682561 </i>
    <i name="Echarged">      0.00000000 </i>
    <i name="Edipol_quadrupol">      0.00000000 </i>
    <i name="Eion">      0.00000000 </i>
   </dipole>
   <energy>
    <i name="e_fr_energy">   -703.67024313 </i>
    <i name="e_wo_entrp">   -703.66287188 </i>
    <i name="e_0_energy">   -703.66655751 </i>
   </energy>
  </scstep>
  <scstep>
   <time name="dav">  628.52  629.72</time>
   <time name="total">  635.45  636.66</time>
   <dipole>
    <v name="dipole">      0.00000000       0.00000000       1.13918072 </v>
    <i name="Tr[quadrupol]"> -74930.28308634 </i>
    <i name="Echarged">      0.00000000 </i>
    <i name="Edipol_quadrupol">      0.00000000 </i>
    <i name="Eion">      0.00000000 </i>
   </dipole>
   <energy>
    <i name="e_fr_energy">   -703.67386487 </i>
    <i name="e_wo_entrp">   -703.66655894 </i>
    <i name="e_0_energy">   -703.67021191 </i>
   </energy>
  </scstep>
  <scstep>
   <time name="dav">  586.32  587.30</time>
   <time name="total">  593.91  594.91</time>
   <dipole>
    <v name="dipole">      0.00000000       0.00000000       1.20997003 </v>
    <i name="Tr[quadrupol]"> -74931.69137395 </i>
    <i name="Echarged">      0.00000000 </i>
    <i name="Edipol_quadrupol">      0.00000000 </i>
    <i name="Eion">      0.00000000 </i>
   </dipole>
   <energy>
    <i name="e_fr_energy">   -703.68166777 </i>
    <i name="e_wo_entrp">   -703.67434256 </i>
    <i name="e_0_energy">   -703.67800517 </i>
   </energy>
  </scstep>
  <scstep>
   <time name="dav">  628.24  629.32</time>
   <time name="total">  635.14  636.24</time>
   <dipole>
    <v name="dipole">      0.00000000       0.00000000       1.23628756 </v>
    <i name="Tr[quadrupol]"> -74933.82863265 </i>
    <i name="Echarged">      0.00000000 </i>
    <i name="Edipol_quadrupol">      0.00000000 </i>
    <i name="Eion">      0.00000000 </i>
   </dipole>
   <energy>
    <i name="e_fr_energy">   -703.68610420 </i>
    <i name="e_wo_entrp">   -703.67873311 </i>
    <i name="e_0_energy">   -703.68241866 </i>
   </energy>
  </scstep>
  <scstep>
   <time name="dav">  603.73  604.58</time>
   <time name="total">  610.72  611.58</time>
   <dipole>
    <v name="dipole">      0.00000000       0.00000000       1.24137927 </v>
    <i name="Tr[quadrupol]"> -74936.31696309 </i>
    <i name="Echarged">      0.00000000 </i>
    <i name="Edipol_quadrupol">      0.00000000 </i>
    <i name="Eion">      0.00000000 </i>
   </dipole>
   <energy>
    <i name="e_fr_energy">   -703.69115300 </i>
    <i name="e_wo_entrp">   -703.68375335 </i>
    <i name="e_0_energy">   -703.68745318 </i>
   </energy>
  </scstep>
  <scstep>
   <time name="dav">  588.55  589.50</time>
   <time name="total">  595.52  596.48</time>
   <dipole>
    <v name="dipole">      0.00000000       0.00000000       1.26311399 </v>
    <i name="Tr[quadrupol]"> -74937.98749629 </i>
    <i name="Echarged">      0.00000000 </i>
    <i name="Edipol_quadrupol">      0.00000000 </i>
    <i name="Eion">      0.00000000 </i>
   </dipole>
   <energy>
    <i name="e_fr_energy">   -703.69619304 </i>
    <i name="e_wo_entrp">   -703.68880038 </i>
    <i name="e_0_energy">   -703.69249671 </i>
   </energy>
  </scstep>
  <scstep>
   <time name="dav">  572.02  572.93</time>
   <time name="total">  580.96  581.89</time>
   <dipole>
    <v name="dipole">      0.00000000       0.00000000       1.28598195 </v>
    <i name="Tr[quadrupol]"> -74939.99162950 </i>
    <i name="Echarged">      0.00000000 </i>
    <i name="Edipol_quadrupol">      0.00000000 </i>
    <i name="Eion">      0.00000000 </i>
   </dipole>
   <energy>
    <i name="e_fr_energy">   -703.70215456 </i>
    <i name="e_wo_entrp">   -703.69475511 </i>
    <i name="e_0_energy">   -703.69845484 </i>
   </energy>
  </scstep>
  <scstep>
   <time name="dav">  584.45  585.32</time>
   <time name="total">  591.49  592.37</time>
   <dipole>
    <v name="dipole">      0.00000000       0.00000000       1.30026464 </v>
    <i name="Tr[quadrupol]"> -74940.78042227 </i>
    <i name="Echarged">      0.00000000 </i>
    <i name="Edipol_quadrupol">      0.00000000 </i>
    <i name="Eion">      0.00000000 </i>
   </dipole>
   <energy>
    <i name="e_fr_energy">   -703.70424367 </i>
    <i name="e_wo_entrp">   -703.69684375 </i>
    <i name="e_0_energy">   -703.70054371 </i>
   </energy>
  </scstep>
  <scstep>
   <time name="dav">  544.26  545.11</time>
   <time name="total">  551.17  552.02</time>
   <dipole>
    <v name="dipole">      0.00000000       0.00000000       1.31694767 </v>
    <i name="Tr[quadrupol]"> -74941.74672911 </i>
    <i name="Echarged">      0.00000000 </i>
    <i name="Edipol_quadrupol">      0.00000000 </i>
    <i name="Eion">      0.00000000 </i>
   </dipole>
   <energy>
    <i name="e_fr_energy">   -703.70531758 </i>
    <i name="e_wo_entrp">   -703.69791855 </i>
    <i name="e_0_energy">   -703.70161806 </i>
   </energy>
  </scstep>
  <scstep>
   <time name="dav">  591.04  592.09</time>
   <time name="total">  597.86  598.92</time>
   <dipole>
    <v name="dipole">      0.00000000       0.00000000       1.33097190 </v>
    <i name="Tr[quadrupol]"> -74941.96512080 </i>
    <i name="Echarged">      0.00000000 </i>
    <i name="Edipol_quadrupol">      0.00000000 </i>
    <i name="Eion">      0.00000000 </i>
   </dipole>
   <energy>
    <i name="e_fr_energy">   -703.70584287 </i>
    <i name="e_wo_entrp">   -703.69844328 </i>
    <i name="e_0_energy">   -703.70214307 </i>
   </energy>
  </scstep>
  <scstep>
   <time name="dav">  698.22  701.74</time>
   <time name="total">  705.03  708.56</time>
   <dipole>
    <v name="dipole">      0.00000000       0.00000000       1.34401597 </v>
    <i name="Tr[quadrupol]"> -74942.16950098 </i>
    <i name="Echarged">      0.00000000 </i>
    <i name="Edipol_quadrupol">      0.00000000 </i>
    <i name="Eion">      0.00000000 </i>
   </dipole>
   <energy>
    <i name="e_fr_energy">   -703.70635204 </i>
    <i name="e_wo_entrp">   -703.69895207 </i>
    <i name="e_0_energy">   -703.70265205 </i>
   </energy>
  </scstep>
  <scstep>
   <time name="dav">  581.83  583.06</time>
   <time name="total">  590.18  591.41</time>
   <dipole>
    <v name="dipole">      0.00000000       0.00000000       1.36253328 </v>
    <i name="Tr[quadrupol]"> -74942.22767696 </i>
    <i name="Echarged">      0.00000000 </i>
    <i name="Edipol_quadrupol">      0.00000000 </i>
    <i name="Eion">      0.00000000 </i>
   </dipole>
   <energy>
    <i name="e_fr_energy">   -703.70681399 </i>
    <i name="e_wo_entrp">   -703.69941227 </i>
    <i name="e_0_energy">   -703.70311313 </i>
   </energy>
  </scstep>
  <scstep>
   <time name="dav">  559.04  560.04</time>
   <time name="total">  565.87  566.87</time>
   <dipole>
    <v name="dipole">      0.00000000       0.00000000       1.37140757 </v>
    <i name="Tr[quadrupol]"> -74942.31389397 </i>
    <i name="Echarged">      0.00000000 </i>
    <i name="Edipol_quadrupol">      0.00000000 </i>
    <i name="Eion">      0.00000000 </i>
   </dipole>
   <energy>
    <i name="e_fr_energy">   -703.70696257 </i>
    <i name="e_wo_entrp">   -703.69955926 </i>
    <i name="e_0_energy">   -703.70326092 </i>
   </energy>
  </scstep>
  <scstep>
   <time name="dav">  555.10  555.92</time>
   <time name="total">  561.94  562.77</time>
   <dipole>
    <v name="dipole">      0.00000000       0.00000000       1.38207729 </v>
    <i name="Tr[quadrupol]"> -74942.43990734 </i>
    <i name="Echarged">      0.00000000 </i>
    <i name="Edipol_quadrupol">      0.00000000 </i>
    <i name="Eion">      0.00000000 </i>
   </dipole>
   <energy>
    <i name="e_fr_energy">   -703.70716002 </i>
    <i name="e_wo_entrp">   -703.69975519 </i>
    <i name="e_0_energy">   -703.70345761 </i>
   </energy>
  </scstep>
  <scstep>
   <time name="dav">  533.60  534.46</time>
   <time name="total">  540.97  541.84</time>
   <dipole>
    <v name="dipole">      0.00000000       0.00000000       1.38557491 </v>
    <i name="Tr[quadrupol]"> -74942.29869029 </i>
    <i name="Echarged">      0.00000000 </i>
    <i name="Edipol_quadrupol">      0.00000000 </i>
    <i name="Eion">      0.00000000 </i>
   </dipole>
   <energy>
    <i name="e_fr_energy">   -703.70725183 </i>
    <i name="e_wo_entrp">   -703.69984738 </i>
    <i name="e_0_energy">   -703.70354960 </i>
   </energy>
  </scstep>
  <scstep>
   <time name="dav">  618.58  619.49</time>
   <time name="total">  626.67  627.60</time>
   <dipole>
    <v name="dipole">      0.00000000       0.00000000       1.39208739 </v>
    <i name="Tr[quadrupol]"> -74944.67987524 </i>
    <i name="Echarged">      0.00000000 </i>
    <i name="Edipol_quadrupol">      0.00000000 </i>
    <i name="Eion">      0.00000000 </i>
   </dipole>
   <energy>
    <i name="e_fr_energy">   -703.70729141 </i>
    <i name="e_wo_entrp">   -703.69988738 </i>
    <i name="e_0_energy">   -703.70358939 </i>
   </energy>
  </scstep>
  <scstep>
   <time name="dav">  502.34  503.05</time>
   <time name="total">  509.50  510.23</time>
   <dipole>
    <v name="dipole">      0.00000000       0.00000000       1.39105116 </v>
    <i name="Tr[quadrupol]"> -74945.59747789 </i>
    <i name="Echarged">      0.00000000 </i>
    <i name="Edipol_quadrupol">      0.00000000 </i>
    <i name="Eion">      0.00000000 </i>
   </dipole>
   <energy>
    <i name="e_fr_energy">   -703.70730076 </i>
    <i name="e_wo_entrp">   -703.69989675 </i>
    <i name="e_0_energy">   -703.70359875 </i>
   </energy>
  </scstep>
  <scstep>
   <time name="dav">  515.32  516.18</time>
   <time name="total">  524.87  525.74</time>
   <dipole>
    <v name="dipole">      0.00000000       0.00000000       1.38801612 </v>
    <i name="Tr[quadrupol]"> -74945.60462695 </i>
    <i name="Echarged">      0.00000000 </i>
    <i name="Edipol_quadrupol">      0.00000000 </i>
    <i name="Eion">      0.00000000 </i>
   </dipole>
   <energy>
    <i name="e_fr_energy">   -703.70730974 </i>
    <i name="e_wo_entrp">   -703.69990517 </i>
    <i name="e_0_energy">   -703.70360745 </i>
   </energy>
  </scstep>
  <scstep>
   <time name="dav">  602.82  603.66</time>
   <time name="total">  609.67  610.53</time>
   <dipole>
    <v name="dipole">      0.00000000       0.00000000       1.38788293 </v>
    <i name="Tr[quadrupol]"> -74945.60388511 </i>
    <i name="Echarged">      0.00000000 </i>
    <i name="Edipol_quadrupol">      0.00000000 </i>
    <i name="Eion">      0.00000000 </i>
   </dipole>
   <energy>
    <i name="e_fr_energy">   -703.70731137 </i>
    <i name="e_wo_entrp">   -703.69990643 </i>
    <i name="e_0_energy">   -703.70360890 </i>
   </energy>
  </scstep>
  <scstep>
   <time name="dav">  622.74  623.75</time>
   <time name="total">  629.63  630.65</time>
   <dipole>
    <v name="dipole">      0.00000000       0.00000000       1.38784871 </v>
    <i name="Tr[quadrupol]"> -74945.60411584 </i>
    <i name="Echarged">      0.00000000 </i>
    <i name="Edipol_quadrupol">      0.00000000 </i>
    <i name="Eion">      0.00000000 </i>
   </dipole>
   <energy>
    <i name="e_fr_energy">   -703.70731184 </i>
    <i name="e_wo_entrp">   -703.69990685 </i>
    <i name="e_0_energy">   -703.70360934 </i>
   </energy>
  </scstep>
  <scstep>
   <time name="dav">  448.76  449.44</time>
   <time name="total">  455.78  456.47</time>
   <dipole>
    <v name="dipole">      0.00000000       0.00000000       1.38813530 </v>
    <i name="Tr[quadrupol]"> -74945.78452350 </i>
    <i name="Echarged">      0.00000000 </i>
    <i name="Edipol_quadrupol">      0.00000000 </i>
    <i name="Eion">      0.00000000 </i>
   </dipole>
   <energy>
    <i name="e_fr_energy">   -703.70731151 </i>
    <i name="e_wo_entrp">   -703.69990660 </i>
    <i name="e_0_energy">   -703.70360905 </i>
   </energy>
  </scstep>
  <scstep>
   <time name="dav">  458.81  459.54</time>
   <time name="total">  466.91  467.65</time>
   <dipole>
    <v name="dipole">      0.00000000       0.00000000       1.38840311 </v>
    <i name="Tr[quadrupol]"> -74946.14694473 </i>
    <i name="Echarged">      0.00000000 </i>
    <i name="Edipol_quadrupol">      0.00000000 </i>
    <i name="Eion">      0.00000000 </i>
   </dipole>
   <energy>
    <i name="e_fr_energy">   -703.70731189 </i>
    <i name="e_wo_entrp">   -703.69990707 </i>
    <i name="e_0_energy">   -703.70360948 </i>
   </energy>
  </scstep>
  <scstep>
   <time name="dav">  581.44  582.32</time>
   <time name="total">  588.30  589.19</time>
   <dipole>
    <v name="dipole">      0.00000000       0.00000000       1.38771072 </v>
    <i name="Tr[quadrupol]"> -74945.96802002 </i>
    <i name="Echarged">      0.00000000 </i>
    <i name="Edipol_quadrupol">      0.00000000 </i>
    <i name="Eion">      0.00000000 </i>
   </dipole>
   <energy>
    <i name="e_fr_energy">   -703.70731319 </i>
    <i name="e_wo_entrp">   -703.69990826 </i>
    <i name="e_0_energy">   -703.70361072 </i>
   </energy>
  </scstep>
  <scstep>
   <time name="dav">  507.72  512.36</time>
   <time name="total">  508.36  513.00</time>
   <dipole>
    <v name="dipole">      0.00000000       0.00000000       1.38771373 </v>
    <i name="Tr[quadrupol]"> -74945.96802583 </i>
    <i name="Echarged">      0.00000000 </i>
    <i name="Edipol_quadrupol">      0.00000000 </i>
    <i name="Eion">      0.00000000 </i>
   </dipole>
   <energy>
    <i name="alphaZ">   1795.13259440 </i>
    <i name="ewald"> 318744.49024600 </i>
    <i name="hartreedc">-467581.15669416 </i>
    <i name="XCdc">   3224.70684362 </i>
    <i name="pawpsdc"> 119805.80326327 </i>
    <i name="pawaedc">-118012.05097579 </i>
    <i name="eentropy">     -0.00740494 </i>
    <i name="bandstr"> -15379.54788626 </i>
    <i name="atom"> 156698.92270065 </i>
    <i name="e_fr_energy">   -703.70731319 </i>
    <i name="e_wo_entrp">   -703.69990826 </i>
    <i name="e_0_energy">   -703.70361072 </i>
   </energy>
  </scstep>
  <structure>
   <crystal>
    <varray name="basis" >
     <v>      17.03433609       0.00000000       0.00000000 </v>
     <v>      -8.51716805      14.75216779       0.00000000 </v>
     <v>       0.00000000       0.00000000      31.29407310 </v>
    </varray>
    <i name="volume">   7863.99353597 </i>
    <varray name="rec_basis" >
     <v>       0.05870496       0.03389332       0.00000000 </v>
     <v>       0.00000000       0.06778665       0.00000000 </v>
     <v>       0.00000000       0.00000000       0.03195493 </v>
    </varray>
   </crystal>
   <varray name="positions" >
    <v>       0.04889542       0.39944771       0.99568253 </v>
    <v>       0.04889542       0.89944771       0.99568253 </v>
    <v>       0.54889542       0.39944771       0.99568253 </v>
    <v>       0.54889542       0.89944771       0.99568253 </v>
    <v>       0.35055229       0.39944771       0.99568253 </v>
    <v>       0.35055229       0.89944771       0.99568253 </v>
    <v>       0.85055229       0.39944771       0.99568253 </v>
    <v>       0.85055229       0.89944771       0.99568253 </v>
    <v>       0.35055229       0.20110457       0.99568253 </v>
    <v>       0.35055229       0.70110457       0.99568253 </v>
    <v>       0.85055229       0.20110457       0.99568253 </v>
    <v>       0.85055229       0.70110457       0.99568253 </v>
    <v>       0.02661586       0.05323172       0.99490245 </v>
    <v>       0.02661586       0.55323172       0.99490245 </v>
    <v>       0.52661586       0.05323172       0.99490245 </v>
    <v>       0.52661586       0.55323172       0.99490245 </v>
    <v>       0.19676828       0.22338414       0.99490245 </v>
    <v>       0.19676828       0.72338414       0.99490245 </v>
    <v>       0.69676828       0.22338414       0.99490245 </v>
    <v>       0.69676828       0.72338414       0.99490245 </v>
    <v>       0.25083021       0.00000000       0.99538266 </v>
    <v>       0.25000000       0.50000000       0.99493075 </v>
    <v>       0.75000000       0.00000000       0.99493075 </v>
    <v>       0.75000000       0.50000000       0.99493075 </v>
    <v>       0.02661586       0.22338414       0.99490245 </v>
    <v>       0.02661586       0.72338414       0.99490245 </v>
    <v>       0.52661586       0.22338414       0.99490245 </v>
    <v>       0.52661586       0.72338414       0.99490245 </v>
    <v>       0.16687125       0.33374251       0.11114905 </v>
    <v>       0.16687125       0.83374251       0.11114905 </v>
    <v>       0.66687125       0.33374251       0.11114905 </v>
    <v>       0.66687125       0.83374251       0.11114905 </v>
    <v>       0.41625749       0.08312875       0.11114905 </v>
    <v>       0.41625749       0.58312875       0.11114905 </v>
    <v>       0.91625749       0.08312875       0.11114905 </v>
    <v>       0.91625749       0.58312875       0.11114905 </v>
    <v>       0.41666666       0.33333334       0.10951073 </v>
    <v>       0.41666666       0.83333334       0.10951073 </v>
    <v>       0.91666666       0.33333334       0.10951073 </v>
    <v>       0.91666666       0.83333334       0.10951073 </v>
    <v>       0.16687125       0.08312875       0.11114905 </v>
    <v>       0.16687125       0.58312875       0.11114905 </v>
    <v>       0.66687125       0.08312875       0.11114905 </v>
    <v>       0.66687125       0.58312875       0.11114905 </v>
    <v>       0.33333334       0.16666667       0.22222222 </v>
    <v>       0.33333334       0.66666667       0.22222222 </v>
    <v>       0.83333334       0.16666667       0.22222222 </v>
    <v>       0.83333334       0.66666667       0.22222222 </v>
    <v>       0.08333331       0.41666666       0.22222222 </v>
    <v>       0.08333331       0.91666666       0.22222222 </v>
    <v>       0.58333331       0.41666666       0.22222222 </v>
    <v>       0.58333331       0.91666666       0.22222222 </v>
    <v>       0.08333331       0.16666669       0.22222222 </v>
    <v>       0.08333331       0.66666669       0.22222222 </v>
    <v>       0.58333331       0.16666669       0.22222222 </v>
    <v>       0.58333331       0.66666669       0.22222222 </v>
    <v>       0.33333334       0.41666666       0.22222222 </v>
    <v>       0.33333334       0.91666666       0.22222222 </v>
    <v>       0.83333334       0.41666666       0.22222222 </v>
    <v>       0.83333334       0.91666666       0.22222222 </v>
    <v>       0.00000000       0.00000000       0.33333334 </v>
    <v>       0.00000000       0.50000000       0.33333334 </v>
    <v>       0.50000000       0.00000000       0.33333334 </v>
    <v>       0.50000000       0.50000000       0.33333334 </v>
    <v>       0.25000000       0.25000000       0.33333334 </v>
    <v>       0.25000000       0.75000000       0.33333334 </v>
    <v>       0.75000000       0.25000000       0.33333334 </v>
    <v>       0.75000000       0.75000000       0.33333334 </v>
    <v>       0.25000000       0.00000000       0.33333334 </v>
    <v>       0.25000000       0.50000000       0.33333334 </v>
    <v>       0.75000000       0.00000000       0.33333334 </v>
    <v>       0.75000000       0.50000000       0.33333334 </v>
    <v>       0.00000000       0.25000000       0.33333334 </v>
    <v>       0.00000000       0.75000000       0.33333334 </v>
    <v>       0.50000000       0.25000000       0.33333334 </v>
    <v>       0.50000000       0.75000000       0.33333334 </v>
    <v>       0.16666667       0.33333334       0.44444445 </v>
    <v>       0.16666667       0.83333334       0.44444445 </v>
    <v>       0.66666667       0.33333334       0.44444445 </v>
    <v>       0.66666667       0.83333334       0.44444445 </v>
    <v>       0.41666666       0.08333334       0.44444445 </v>
    <v>       0.41666666       0.58333334       0.44444445 </v>
    <v>       0.91666666       0.08333334       0.44444445 </v>
    <v>       0.91666666       0.58333334       0.44444445 </v>
    <v>       0.41666666       0.33333334       0.44444445 </v>
    <v>       0.41666666       0.83333334       0.44444445 </v>
    <v>       0.91666666       0.33333334       0.44444445 </v>
    <v>       0.91666666       0.83333334       0.44444445 </v>
    <v>       0.16666667       0.08333334       0.44444445 </v>
    <v>       0.16666667       0.58333334       0.44444445 </v>
    <v>       0.66666667       0.08333334       0.44444445 </v>
    <v>       0.66666667       0.58333334       0.44444445 </v>
    <v>       0.00060404       0.00120809       0.07927097 </v>
    <v>       0.00060404       0.50120809       0.07927097 </v>
    <v>       0.50060404       0.00120809       0.07927097 </v>
    <v>       0.50060404       0.50120809       0.07927097 </v>
    <v>       0.00060404       0.24939596       0.07927100 </v>
    <v>       0.00060404       0.74939596       0.07927100 </v>
    <v>       0.50060404       0.24939596       0.07927100 </v>
    <v>       0.50060404       0.74939596       0.07927100 </v>
    <v>       0.25000000       0.00000000       0.08094485 </v>
    <v>       0.25000000       0.50000000       0.08094485 </v>
    <v>       0.75000000       0.00000000       0.08094485 </v>
    <v>       0.75000000       0.50000000       0.08094485 </v>
    <v>       0.24879191       0.24939596       0.07927100 </v>
    <v>       0.24879191       0.74939596       0.07927100 </v>
    <v>       0.74879191       0.24939596       0.07927100 </v>
    <v>       0.74879191       0.74939596       0.07927100 </v>
    <v>       0.16660331       0.33320661       0.19452973 </v>
    <v>       0.16660331       0.83320661       0.19452973 </v>
    <v>       0.66660331       0.33320661       0.19452973 </v>
    <v>       0.66660331       0.83320661       0.19452973 </v>
    <v>       0.16660331       0.08339670       0.19452973 </v>
    <v>       0.16660331       0.58339670       0.19452973 </v>
    <v>       0.66660331       0.08339670       0.19452973 </v>
    <v>       0.66660331       0.58339670       0.19452973 </v>
[...]
       <r>    -6.2400    18.0651  1058.4393 </r>
       <r>    -6.1694    18.0841  1059.7160 </r>
       <r>    -6.0988     1.4153  1059.8159 </r>
       <r>    -6.0282    13.6777  1060.7816 </r>
       <r>    -5.9576    68.0608  1065.5867 </r>
       <r>    -5.8870    88.2900  1071.8201 </r>
       <r>    -5.8164    61.8218  1076.1847 </r>
       <r>    -5.7458    44.1664  1079.3029 </r>
       <r>    -5.6752    59.7196  1083.5191 </r>
       <r>    -5.6046    71.7437  1088.5843 </r>
       <r>    -5.5340    89.2933  1094.8885 </r>
       <r>    -5.4634    89.5312  1101.2094 </r>
       <r>    -5.3928    66.1469  1105.8795 </r>
       <r>    -5.3222   114.2222  1113.9436 </r>
       <r>    -5.2516   127.8338  1122.9688 </r>
       <r>    -5.1810   109.2980  1130.6853 </r>
       <r>    -5.1104   102.0818  1137.8923 </r>
       <r>    -5.0398    67.6610  1142.6693 </r>
       <r>    -4.9692    47.6947  1146.0365 </r>
       <r>    -4.8986    80.8257  1151.7429 </r>
       <r>    -4.8280    75.9127  1157.1024 </r>
       <r>    -4.7574    59.6202  1161.3116 </r>
       <r>    -4.6868    77.7007  1166.7973 </r>
       <r>    -4.6162    64.7078  1171.3658 </r>
       <r>    -4.5456    68.7525  1176.2197 </r>
       <r>    -4.4750    37.8064  1178.8889 </r>
       <r>    -4.4044    12.8745  1179.7978 </r>
       <r>    -4.3338    47.8500  1183.1761 </r>
       <r>    -4.2632    24.7598  1184.9242 </r>
       <r>    -4.1926    21.0481  1186.4102 </r>
       <r>    -4.1220    12.2770  1187.2769 </r>
       <r>    -4.0514    15.6239  1188.3800 </r>
       <r>    -3.9808    13.5725  1189.3382 </r>
       <r>    -3.9102     4.9070  1189.6846 </r>
       <r>    -3.8396    27.7992  1191.6473 </r>
       <r>    -3.7690    58.4235  1195.7720 </r>
       <r>    -3.6984    41.0596  1198.6709 </r>
       <r>    -3.6278    39.0303  1201.4264 </r>
       <r>    -3.5572    19.7807  1202.8230 </r>
       <r>    -3.4866    18.9512  1204.1609 </r>
       <r>    -3.4160    27.6146  1206.1105 </r>
       <r>    -3.3454    29.1511  1208.1686 </r>
       <r>    -3.2748    22.9256  1209.7872 </r>
       <r>    -3.2042    55.4201  1213.6999 </r>
       <r>    -3.1336   140.4966  1223.6191 </r>
       <r>    -3.0630    97.1106  1230.4751 </r>
       <r>    -2.9924    72.9762  1235.6273 </r>
       <r>    -2.9218    22.3999  1237.2088 </r>
       <r>    -2.8512    41.6381  1240.1484 </r>
       <r>    -2.7806    42.8272  1243.1721 </r>
       <r>    -2.7100    61.8991  1247.5422 </r>
       <r>    -2.6394    56.0027  1251.4960 </r>
       <r>    -2.5688    71.4505  1256.5405 </r>
       <r>    -2.4982    96.1383  1263.3279 </r>
       <r>    -2.4276   134.5233  1272.8254 </r>
       <r>    -2.3570   137.6505  1282.5436 </r>
       <r>    -2.2864   106.5880  1290.0688 </r>
       <r>    -2.2158    67.3349  1294.8227 </r>
       <r>    -2.1452    70.6448  1299.8102 </r>
       <r>    -2.0746    87.4778  1305.9862 </r>
       <r>    -2.0040    99.1583  1312.9869 </r>
       <r>    -1.9334   125.1518  1321.8227 </r>
       <r>    -1.8628   150.0761  1332.4182 </r>
       <r>    -1.7922   139.1770  1342.2442 </r>
       <r>    -1.7216   141.3118  1352.2209 </r>
       <r>    -1.6510   112.0482  1360.1316 </r>
       <r>    -1.5804   121.9870  1368.7439 </r>
       <r>    -1.5098   163.2946  1380.2726 </r>
       <r>    -1.4391   129.5069  1389.4159 </r>
       <r>    -1.3685    56.4265  1393.3997 </r>
       <r>    -1.2979   102.0564  1400.6049 </r>
       <r>    -1.2273   108.7026  1408.2794 </r>
       <r>    -1.1567   121.7670  1416.8762 </r>
       <r>    -1.0861   130.3846  1426.0815 </r>
       <r>    -1.0155   136.9537  1435.7505 </r>
       <r>    -0.9449   112.4525  1443.6897 </r>
       <r>    -0.8743   102.8090  1450.9481 </r>
       <r>    -0.8037    90.3253  1457.3252 </r>
       <r>    -0.7331    97.6262  1464.2176 </r>
       <r>    -0.6625   109.9103  1471.9774 </r>
       <r>    -0.5919   127.8984  1481.0071 </r>
       <r>    -0.5213   114.4393  1489.0866 </r>
       <r>    -0.4507    94.4150  1495.7524 </r>
       <r>    -0.3801    64.0733  1500.2760 </r>
       <r>    -0.3095   101.1959  1507.4205 </r>
       <r>    -0.2389    70.5896  1512.4042 </r>
       <r>    -0.1683    44.7349  1515.5625 </r>
       <r>    -0.0977    34.5981  1518.0051 </r>
       <r>    -0.0271    44.6889  1521.1602 </r>
       <r>     0.0435    25.9155  1522.9899 </r>
       <r>     0.1141    31.6207  1525.2223 </r>
       <r>     0.1847    18.7509  1526.5461 </r>
       <r>     0.2553    22.1859  1528.1125 </r>
       <r>     0.3259    19.7939  1529.5099 </r>
       <r>     0.3965    25.3420  1531.2991 </r>
       <r>     0.4671    17.5618  1532.5390 </r>
       <r>     0.5377    22.6013  1534.1347 </r>
       <r>     0.6083    13.8494  1535.1124 </r>
       <r>     0.6789     4.2312  1535.4112 </r>
       <r>     0.7495     2.0041  1535.5526 </r>
       <r>     0.8201     0.6992  1535.6020 </r>
       <r>     0.8907     4.4847  1535.9186 </r>
       <r>     0.9613    10.2785  1536.6443 </r>
       <r>     1.0319    28.5512  1538.6600 </r>
       <r>     1.1025    30.4836  1540.8122 </r>
       <r>     1.1731    18.4780  1542.1168 </r>
       <r>     1.2437    10.0410  1542.8257 </r>
       <r>     1.3143     1.4607  1542.9288 </r>
       <r>     1.3849    14.6782  1543.9651 </r>
       <r>     1.4555    60.9895  1548.2710 </r>
       <r>     1.5261    50.4803  1551.8349 </r>
       <r>     1.5967    16.9158  1553.0292 </r>
       <r>     1.6673    31.8519  1555.2780 </r>
       <r>     1.7379    50.2481  1558.8255 </r>
       <r>     1.8085    58.5934  1562.9622 </r>
       <r>     1.8791    54.0960  1566.7815 </r>
       <r>     1.9497    56.2582  1570.7533 </r>
       <r>     2.0203    35.3384  1573.2483 </r>
       <r>     2.0909    42.6633  1576.2603 </r>
       <r>     2.1615    33.4529  1578.6221 </r>
       <r>     2.2321    73.1475  1583.7864 </r>
       <r>     2.3027    87.1335  1589.9381 </r>
       <r>     2.3733   110.4551  1597.7363 </r>
       <r>     2.4439   117.8442  1606.0562 </r>
       <r>     2.5145    85.0216  1612.0587 </r>
       <r>     2.5851   105.7915  1619.5277 </r>
       <r>     2.6557   116.6415  1627.7627 </r>
       <r>     2.7263    97.1588  1634.6222 </r>
       <r>     2.7969   115.2295  1642.7574 </r>
       <r>     2.8675   120.9535  1651.2968 </r>
       <r>     2.9381   118.8439  1659.6873 </r>
       <r>     3.0087   116.8677  1667.9383 </r>
       <r>     3.0793   161.8964  1679.3683 </r>
       <r>     3.1499   105.8062  1686.8383 </r>
       <r>     3.2205    97.9838  1693.7560 </r>
       <r>     3.2911    77.5999  1699.2346 </r>
       <r>     3.3617    88.9300  1705.5131 </r>
       <r>     3.4323   111.0668  1713.3545 </r>
       <r>     3.5029    86.5810  1719.4672 </r>
       <r>     3.5735    75.7323  1724.8139 </r>
       <r>     3.6441    80.5719  1730.5024 </r>
       <r>     3.7147    58.1524  1734.6080 </r>
       <r>     3.7853    73.5722  1739.8022 </r>
       <r>     3.8559    82.2949  1745.6123 </r>
       <r>     3.9265   108.8486  1753.2971 </r>
       <r>     3.9971   119.3246  1761.7215 </r>
       <r>     4.0677   103.2631  1769.0119 </r>
       <r>     4.1383    85.5311  1775.0505 </r>
       <r>     4.2089    85.5450  1781.0900 </r>
       <r>     4.2795    95.7370  1787.8491 </r>
       <r>     4.3501    62.1178  1792.2347 </r>
       <r>     4.4207    92.6626  1798.7768 </r>
       <r>     4.4913    97.2170  1805.6403 </r>
       <r>     4.5619    83.6388  1811.5453 </r>
       <r>     4.6325   130.7916  1820.7793 </r>
       <r>     4.7031   130.0892  1829.9637 </r>
       <r>     4.7737   124.0003  1838.7182 </r>
       <r>     4.8443   104.9907  1846.1306 </r>
       <r>     4.9149    25.4637  1847.9284 </r>
       <r>     4.9855     1.0116  1847.9998 </r>
       <r>     5.0561     0.0032  1848.0000 </r>
       <r>     5.1267     0.0000  1848.0000 </r>
       <r>     5.1973     0.0000  1848.0000 </r>
       <r>     5.2679     0.0000  1848.0000 </r>
       <r>     5.3385     0.0000  1848.0000 </r>
       <r>     5.4091     0.0000  1848.0000 </r>
       <r>     5.4797     0.0000  1848.0000 </r>
       <r>     5.5503     0.0000  1848.0000 </r>
       <r>     5.6209     0.0000  1848.0000 </r>
       <r>     5.6915     0.0000  1848.0000 </r>
       <r>     5.7621     0.0000  1848.0000 </r>
       <r>     5.8327     0.0000  1848.0000 </r>
      </set>
     </set>
    </array>
   </total>
  </dos>
 </calculation>
 <structure name="finalpos" >
  <crystal>
   <varray name="basis" >
    <v>      17.03433609       0.00000000       0.00000000 </v>
    <v>      -8.51716805      14.75216779       0.00000000 </v>
    <v>       0.00000000       0.00000000      31.29407310 </v>
   </varray>
   <i name="volume">   7863.99353597 </i>
   <varray name="rec_basis" >
    <v>       0.05870496       0.03389332       0.00000000 </v>
    <v>       0.00000000       0.06778665       0.00000000 </v>
    <v>       0.00000000       0.00000000       0.03195493 </v>
   </varray>
  </crystal>
  <varray name="positions" >
   <v>       0.04889542       0.39944771       0.99568253 </v>
   <v>       0.04889542       0.89944771       0.99568253 </v>
   <v>       0.54889542       0.39944771       0.99568253 </v>
   <v>       0.54889542       0.89944771       0.99568253 </v>
   <v>       0.35055229       0.39944771       0.99568253 </v>
   <v>       0.35055229       0.89944771       0.99568253 </v>
   <v>       0.85055229       0.39944771       0.99568253 </v>
   <v>       0.85055229       0.89944771       0.99568253 </v>
   <v>       0.35055229       0.20110457       0.99568253 </v>
   <v>       0.35055229       0.70110457       0.99568253 </v>
   <v>       0.85055229       0.20110457       0.99568253 </v>
   <v>       0.85055229       0.70110457       0.99568253 </v>
   <v>       0.02661586       0.05323172       0.99490245 </v>
   <v>       0.02661586       0.55323172       0.99490245 </v>
   <v>       0.52661586       0.05323172       0.99490245 </v>
   <v>       0.52661586       0.55323172       0.99490245 </v>
   <v>       0.19676828       0.22338414       0.99490245 </v>
   <v>       0.19676828       0.72338414       0.99490245 </v>
   <v>       0.69676828       0.22338414       0.99490245 </v>
   <v>       0.69676828       0.72338414       0.99490245 </v>
   <v>       0.25083021       0.00000000       0.99538266 </v>
   <v>       0.25000000       0.50000000       0.99493075 </v>
   <v>       0.75000000       0.00000000       0.99493075 </v>
   <v>       0.75000000       0.50000000       0.99493075 </v>
   <v>       0.02661586       0.22338414       0.99490245 </v>
   <v>       0.02661586       0.72338414       0.99490245 </v>
   <v>       0.52661586       0.22338414       0.99490245 </v>
   <v>       0.52661586       0.72338414       0.99490245 </v>
   <v>       0.16687125       0.33374251       0.11114905 </v>
   <v>       0.16687125       0.83374251       0.11114905 </v>
   <v>       0.66687125       0.33374251       0.11114905 </v>
   <v>       0.66687125       0.83374251       0.11114905 </v>
   <v>       0.41625749       0.08312875       0.11114905 </v>
   <v>       0.41625749       0.58312875       0.11114905 </v>
   <v>       0.91625749       0.08312875       0.11114905 </v>
   <v>       0.91625749       0.58312875       0.11114905 </v>
   <v>       0.41666666       0.33333334       0.10951073 </v>
   <v>       0.41666666       0.83333334       0.10951073 </v>
   <v>       0.91666666       0.33333334       0.10951073 </v>
   <v>       0.91666666       0.83333334       0.10951073 </v>
   <v>       0.16687125       0.08312875       0.11114905 </v>
   <v>       0.16687125       0.58312875       0.11114905 </v>
   <v>       0.66687125       0.08312875       0.11114905 </v>
   <v>       0.66687125       0.58312875       0.11114905 </v>
   <v>       0.33333334       0.16666667       0.22222222 </v>
   <v>       0.33333334       0.66666667       0.22222222 </v>
   <v>       0.83333334       0.16666667       0.22222222 </v>
   <v>       0.83333334       0.66666667       0.22222222 </v>
   <v>       0.08333331       0.41666666       0.22222222 </v>
   <v>       0.08333331       0.91666666       0.22222222 </v>
   <v>       0.58333331       0.41666666       0.22222222 </v>
   <v>       0.58333331       0.91666666       0.22222222 </v>
   <v>       0.08333331       0.16666669       0.22222222 </v>
   <v>       0.08333331       0.66666669       0.22222222 </v>
   <v>       0.58333331       0.16666669       0.22222222 </v>
   <v>       0.58333331       0.66666669       0.22222222 </v>
   <v>       0.33333334       0.41666666       0.22222222 </v>
   <v>       0.33333334       0.91666666       0.22222222 </v>
   <v>       0.83333334       0.41666666       0.22222222 </v>
   <v>       0.83333334       0.91666666       0.22222222 </v>
   <v>       0.00000000       0.00000000       0.33333334 </v>
   <v>       0.00000000       0.50000000       0.33333334 </v>
   <v>       0.50000000       0.00000000       0.33333334 </v>
   <v>       0.50000000       0.50000000       0.33333334 </v>
   <v>       0.25000000       0.25000000       0.33333334 </v>
   <v>       0.25000000       0.75000000       0.33333334 </v>
   <v>       0.75000000       0.25000000       0.33333334 </v>
   <v>       0.75000000       0.75000000       0.33333334 </v>
   <v>       0.25000000       0.00000000       0.33333334 </v>
   <v>       0.25000000       0.50000000       0.33333334 </v>
   <v>       0.75000000       0.00000000       0.33333334 </v>
   <v>       0.75000000       0.50000000       0.33333334 </v>
   <v>       0.00000000       0.25000000       0.33333334 </v>
   <v>       0.00000000       0.75000000       0.33333334 </v>
   <v>       0.50000000       0.25000000       0.33333334 </v>
   <v>       0.50000000       0.75000000       0.33333334 </v>
   <v>       0.16666667       0.33333334       0.44444445 </v>
   <v>       0.16666667       0.83333334       0.44444445 </v>
   <v>       0.66666667       0.33333334       0.44444445 </v>
   <v>       0.66666667       0.83333334       0.44444445 </v>
   <v>       0.41666666       0.08333334       0.44444445 </v>
   <v>       0.41666666       0.58333334       0.44444445 </v>
   <v>       0.91666666       0.08333334       0.44444445 </v>
   <v>       0.91666666       0.58333334       0.44444445 </v>
   <v>       0.41666666       0.33333334       0.44444445 </v>
   <v>       0.41666666       0.83333334       0.44444445 </v>
   <v>       0.91666666       0.33333334       0.44444445 </v>
   <v>       0.91666666       0.83333334       0.44444445 </v>
   <v>       0.16666667       0.08333334       0.44444445 </v>
   <v>       0.16666667       0.58333334       0.44444445 </v>
   <v>       0.66666667       0.08333334       0.44444445 </v>
   <v>       0.66666667       0.58333334       0.44444445 </v>
   <v>       0.00060404       0.00120809       0.07927097 </v>
   <v>       0.00060404       0.50120809       0.07927097 </v>
   <v>       0.50060404       0.00120809       0.07927097 </v>
   <v>       0.50060404       0.50120809       0.07927097 </v>
   <v>       0.00060404       0.24939596       0.07927100 </v>
   <v>       0.00060404       0.74939596       0.07927100 </v>
   <v>       0.50060404       0.24939596       0.07927100 </v>
   <v>       0.50060404       0.74939596       0.07927100 </v>
   <v>       0.25000000       0.00000000       0.08094485 </v>
   <v>       0.25000000       0.50000000       0.08094485 </v>
   <v>       0.75000000       0.00000000       0.08094485 </v>
   <v>       0.75000000       0.50000000       0.08094485 </v>
   <v>       0.24879191       0.24939596       0.07927100 </v>
   <v>       0.24879191       0.74939596       0.07927100 </v>
   <v>       0.74879191       0.24939596       0.07927100 </v>
   <v>       0.74879191       0.74939596       0.07927100 </v>
   <v>       0.16660331       0.33320661       0.19452973 </v>
   <v>       0.16660331       0.83320661       0.19452973 </v>
   <v>       0.66660331       0.33320661       0.19452973 </v>
   <v>       0.66660331       0.83320661       0.19452973 </v>
   <v>       0.16660331       0.08339670       0.19452973 </v>
   <v>       0.16660331       0.58339670       0.19452973 </v>
   <v>       0.66660331       0.08339670       0.19452973 </v>
   <v>       0.66660331       0.58339670       0.19452973 </v>
   <v>       0.41666666       0.33333334       0.19342860 </v>
   <v>       0.41666666       0.83333334       0.19342860 </v>
   <v>       0.91666666       0.33333334       0.19342860 </v>
   <v>       0.91666666       0.83333334       0.19342860 </v>
   <v>       0.41679339       0.08339670       0.19452973 </v>
   <v>       0.41679339       0.58339670       0.19452973 </v>
   <v>       0.91679339       0.08339670       0.19452973 </v>
   <v>       0.91679339       0.58339670       0.19452973 </v>
   <v>       0.33333334       0.16666667       0.30555555 </v>
   <v>       0.33333334       0.66666667       0.30555555 </v>
   <v>       0.83333334       0.16666667       0.30555555 </v>
   <v>       0.83333334       0.66666667       0.30555555 </v>
   <v>       0.33333334       0.41666666       0.30555555 </v>
   <v>       0.33333334       0.91666666       0.30555555 </v>
   <v>       0.83333334       0.41666666       0.30555555 </v>
   <v>       0.83333334       0.91666666       0.30555555 </v>
   <v>       0.08333331       0.16666669       0.30555555 </v>
   <v>       0.08333331       0.66666669       0.30555555 </v>
   <v>       0.58333331       0.16666669       0.30555555 </v>
   <v>       0.58333331       0.66666669       0.30555555 </v>
   <v>       0.08333331       0.41666666       0.30555555 </v>
   <v>       0.08333331       0.91666666       0.30555555 </v>
   <v>       0.58333331       0.41666666       0.30555555 </v>
   <v>       0.58333331       0.91666666       0.30555555 </v>
   <v>       0.00000000       0.00000000       0.41666666 </v>
   <v>       0.00000000       0.50000000       0.41666666 </v>
   <v>       0.50000000       0.00000000       0.41666666 </v>
   <v>       0.50000000       0.50000000       0.41666666 </v>
   <v>       0.00000000       0.25000000       0.41666666 </v>
   <v>       0.00000000       0.75000000       0.41666666 </v>
   <v>       0.50000000       0.25000000       0.41666666 </v>
   <v>       0.50000000       0.75000000       0.41666666 </v>
   <v>       0.25000000       0.00000000       0.41666666 </v>
   <v>       0.25000000       0.50000000       0.41666666 </v>
   <v>       0.75000000       0.00000000       0.41666666 </v>
   <v>       0.75000000       0.50000000       0.41666666 </v>
   <v>       0.25000000       0.25000000       0.41666666 </v>
   <v>       0.25000000       0.75000000       0.41666666 </v>
   <v>       0.75000000       0.25000000       0.41666666 </v>
   <v>       0.75000000       0.75000000       0.41666666 </v>
   <v>       0.16666667       0.33333334       0.50007080 </v>
   <v>       0.16666667       0.83333334       0.50007080 </v>
   <v>       0.66666667       0.33333334       0.50007080 </v>
   <v>       0.66666667       0.83333334       0.50007080 </v>
   <v>       0.16666667       0.08333334       0.50007080 </v>
   <v>       0.16666667       0.58333334       0.50007080 </v>
   <v>       0.66666667       0.08333334       0.50007080 </v>
   <v>       0.66666667       0.58333334       0.50007080 </v>
   <v>       0.41666666       0.33333334       0.50007080 </v>
   <v>       0.41666666       0.83333334       0.50007080 </v>
   <v>       0.91666666       0.33333334       0.50007080 </v>
   <v>       0.91666666       0.83333334       0.50007080 </v>
   <v>       0.41666666       0.08333334       0.50007080 </v>
   <v>       0.41666666       0.58333334       0.50007080 </v>
   <v>       0.91666666       0.08333334       0.50007080 </v>
   <v>       0.91666666       0.58333334       0.50007080 </v>
  </varray>
 </structure>
</modeling>
