<?xml version="1.0" encoding="ISO-8859-1"?>
<modeling>
 <generator>
  <i name="program" type="string">vasp </i>
  <i name="version" type="string">5.4.4.18Apr17-6-g9f103f2a35  </i>
  <i name="subversion" type="string">(build Feb 09 2021 16:27:36) complex            parallel </i>
  <i name="platform" type="string">IFC15_impi </i>
  <i name="date" type="string">2021 04 29 </i>
  <i name="time" type="string">03:24:55 </i>
 </generator>
 <incar>
  <i type="int" name="ISTART">     0</i>
  <i type="string" name="PREC">a</i>
  <i type="logical" name="ADDGRID"> T  </i>
  <i type="int" name="NELM">   300</i>
  <i type="int" name="NELMIN">     5</i>
  <i type="int" name="IBRION">    -1</i>
  <i name="EDIFF">      0.00000100</i>
  <i name="ENCUT">    500.00000000</i>
  <i type="logical" name="LREAL"> F  </i>
  <i type="int" name="ISMEAR">     0</i>
  <i name="SIGMA">      0.05000000</i>
  <i type="logical" name="LWAVE"> F  </i>
  <i type="logical" name="LCHARG"> F  </i>
  <v type="int" name="KPOINT_BSE">    -1     0     0     0</v>
  <i type="int" name="NELM">   300</i>
 </incar>
 <structure name="primitive_cell" >
  <crystal>
   <varray name="basis" >
    <v>      10.28518105       0.00000000       0.00000000 </v>
    <v>       5.14259052       8.90722807       0.00000000 </v>
    <v>       0.00000000       0.00000000      27.79016876 </v>
   </varray>
   <i name="volume">   2545.92553775 </i>
   <varray name="rec_basis" >
    <v>       0.09722726      -0.05613419       0.00000000 </v>
    <v>       0.00000000       0.11226837       0.00000000 </v>
    <v>       0.00000000       0.00000000       0.03598395 </v>
   </varray>
  </crystal>
  <varray name="positions" >
   <v>       0.00000000       0.00000000       0.22663990 </v>
   <v>       0.16666666      -0.08333334       0.30218653 </v>
   <v>      -0.08333334       0.16666666       0.30218653 </v>
   <v>       0.25000000       0.00000000       0.22663990 </v>
   <v>       0.00000000      -0.25000000       0.22663990 </v>
   <v>       0.25000000      -0.25000000       0.22663990 </v>
   <v>      -0.25000000       0.25000000       0.22663990 </v>
   <v>       0.00000000       0.25000000       0.22663990 </v>
   <v>      -0.25000000       0.00000000       0.22663990 </v>
   <v>      -0.08333334      -0.08333334       0.30218653 </v>
   <v>       0.16666666       0.16666666       0.30218653 </v>
   <v>       0.16666666      -0.33333334       0.30218653 </v>
   <v>      -0.33333334       0.16666666       0.30218653 </v>
   <v>       0.08333333       0.08333333       0.37716320 </v>
   <v>       0.08351614      -0.16675810       0.37729758 </v>
   <v>      -0.16675810       0.08351614       0.37729758 </v>
   <v>       0.41666666      -0.08333334       0.30218653 </v>
   <v>      -0.08333334       0.41666666       0.30218653 </v>
   <v>      -0.33333334       0.41666666       0.30218653 </v>
   <v>       0.41666666      -0.33333334       0.30218653 </v>
   <v>      -0.50000000       0.25000000       0.22663990 </v>
   <v>       0.25000000       0.25000000       0.22663990 </v>
   <v>       0.25000000      -0.50000000       0.22663990 </v>
   <v>      -0.25000000      -0.50000000       0.22663990 </v>
   <v>      -0.25000000      -0.25000000       0.22663990 </v>
   <v>      -0.50000000      -0.25000000       0.22663990 </v>
   <v>      -0.08333334      -0.33333334       0.30218653 </v>
   <v>      -0.33333334      -0.08333334       0.30218653 </v>
   <v>       0.33324190      -0.16675810       0.37729758 </v>
   <v>      -0.16675810       0.33324190       0.37729758 </v>
   <v>      -0.16675810      -0.16675810       0.37729758 </v>
   <v>       0.00000000      -0.50000000       0.22663990 </v>
   <v>      -0.50000000      -0.50000000       0.22663990 </v>
   <v>      -0.50000000       0.00000000       0.22663990 </v>
   <v>      -0.41666667       0.08333333       0.37716320 </v>
   <v>       0.08333333      -0.41666667       0.37716320 </v>
   <v>       0.33324190      -0.41648386       0.37729758 </v>
   <v>      -0.41648386       0.33324190       0.37729758 </v>
   <v>       0.33324190       0.08351614       0.37729758 </v>
   <v>       0.08351614       0.33324190       0.37729758 </v>
   <v>       0.16666666       0.41666666       0.30218653 </v>
   <v>       0.41666666       0.16666666       0.30218653 </v>
   <v>       0.41666666       0.41666666       0.30218653 </v>
   <v>       0.00012997       0.00012997       0.45242342 </v>
   <v>      -0.33333334      -0.33333334       0.30218653 </v>
   <v>       0.00012997       0.24974005       0.45242342 </v>
   <v>       0.24974005       0.00012997       0.45242342 </v>
   <v>      -0.25025995       0.00012997       0.45242342 </v>
   <v>       0.00012997      -0.25025995       0.45242342 </v>
   <v>       0.25000000      -0.25000000       0.45288750 </v>
   <v>      -0.25000000       0.25000000       0.45288750 </v>
   <v>      -0.41666667      -0.41666667       0.37716320 </v>
   <v>      -0.41648386      -0.16675810       0.37729758 </v>
   <v>      -0.16675810      -0.41648386       0.37729758 </v>
   <v>       0.33324190       0.33324190       0.37729758 </v>
   <v>       0.24974005      -0.49987003       0.45242342 </v>
   <v>      -0.49987003       0.24974005       0.45242342 </v>
   <v>      -0.49987003      -0.25025995       0.45242342 </v>
   <v>      -0.25025995      -0.49987003       0.45242342 </v>
   <v>       0.25000000       0.25000000       0.45288750 </v>
   <v>      -0.25000000      -0.25000000       0.45288750 </v>
   <v>       0.00012997      -0.49987003       0.45242342 </v>
   <v>      -0.49987003       0.00012997       0.45242342 </v>
   <v>      -0.49987003      -0.49987003       0.45242342 </v>
   <v>      -0.08333334      -0.08333334      -0.47258061 </v>
   <v>      -0.08321199       0.16660598      -0.47186093 </v>
   <v>       0.16660598      -0.08321199      -0.47186093 </v>
   <v>       0.16660598       0.16660598      -0.47186093 </v>
   <v>      -0.33339402       0.16660598      -0.47186093 </v>
   <v>       0.16660598      -0.33339402      -0.47186093 </v>
   <v>       0.41666666      -0.08333334      -0.47258061 </v>
   <v>      -0.08333334       0.41666666      -0.47258061 </v>
   <v>      -0.33339402      -0.08321199      -0.47186093 </v>
   <v>      -0.08321199      -0.33339402      -0.47186093 </v>
   <v>      -0.33339402       0.41678801      -0.47186093 </v>
   <v>       0.41678801      -0.33339402      -0.47186093 </v>
   <v>       0.41666666       0.41666666      -0.47258061 </v>
   <v>       0.16660598       0.41678801      -0.47186093 </v>
   <v>       0.41678801       0.16660598      -0.47186093 </v>
   <v>      -0.33339402      -0.33339402      -0.47186093 </v>
   <v>       0.08333333       0.08333333      -0.39746661 </v>
   <v>      -0.16565471       0.08130935      -0.39679536 </v>
   <v>       0.08130935      -0.16565471      -0.39679536 </v>
   <v>      -0.16565471      -0.16565471      -0.39679536 </v>
   <v>      -0.16565471       0.33434529      -0.39679536 </v>
   <v>       0.33434529      -0.16565471      -0.39679536 </v>
   <v>      -0.41666667       0.08333333      -0.39746661 </v>
   <v>       0.08333333      -0.41666667      -0.39746661 </v>
   <v>       0.08130935       0.33434529      -0.39679536 </v>
   <v>       0.33434529       0.08130935      -0.39679536 </v>
   <v>       0.33434529      -0.41869065      -0.39679536 </v>
   <v>      -0.41869065       0.33434529      -0.39679536 </v>
   <v>      -0.41666667      -0.41666667      -0.39746661 </v>
   <v>      -0.41869065      -0.16565471      -0.39679536 </v>
   <v>      -0.16565471      -0.41869065      -0.39679536 </v>
   <v>       0.33434529       0.33434529      -0.39679536 </v>
   <v>      -0.00285352      -0.00285352      -0.31942752 </v>
   <v>       0.25000000      -0.25000000      -0.32519129 </v>
   <v>      -0.25000000       0.25000000      -0.32519129 </v>
   <v>      -0.24429296      -0.00285352      -0.31942752 </v>
   <v>      -0.00285352      -0.24429296      -0.31942752 </v>
   <v>      -0.00285352       0.25570704      -0.31942752 </v>
   <v>       0.25570704      -0.00285352      -0.31942752 </v>
   <v>      -0.25000000      -0.25000000      -0.32519129 </v>
   <v>       0.25137500       0.25000000      -0.32468240 </v>
   <v>       0.49714648      -0.24429296      -0.31942752 </v>
   <v>      -0.24429296       0.49714648      -0.31942752 </v>
   <v>       0.25570704       0.49714648      -0.31942752 </v>
   <v>       0.49714648       0.25570704      -0.31942752 </v>
   <v>      -0.00285352       0.49714648      -0.31942752 </v>
   <v>       0.49714648      -0.00285352      -0.31942752 </v>
   <v>       0.49714648       0.49714648      -0.31942752 </v>
   <v>       0.08333333       0.08333333      -0.27956112 </v>
   <v>      -0.41666667       0.08333333      -0.27956112 </v>
   <v>       0.08333333      -0.41666667      -0.27956112 </v>
   <v>      -0.41666667      -0.41666667      -0.27956112 </v>
  </varray>
 </structure>
 <varray name="primitive_index" >
  <v type="int" >        1 </v>
  <v type="int" >       22 </v>
  <v type="int" >       27 </v>
  <v type="int" >        9 </v>
  <v type="int" >        6 </v>
  <v type="int" >       14 </v>
  <v type="int" >       15 </v>
  <v type="int" >        5 </v>
  <v type="int" >       11 </v>
  <v type="int" >       32 </v>
  <v type="int" >       17 </v>
  <v type="int" >       18 </v>
  <v type="int" >       19 </v>
  <v type="int" >       33 </v>
  <v type="int" >       38 </v>
  <v type="int" >       43 </v>
  <v type="int" >       30 </v>
  <v type="int" >       31 </v>
  <v type="int" >       23 </v>
  <v type="int" >       26 </v>
  <v type="int" >        7 </v>
  <v type="int" >       13 </v>
  <v type="int" >       10 </v>
  <v type="int" >       12 </v>
  <v type="int" >       16 </v>
  <v type="int" >        8 </v>
  <v type="int" >       28 </v>
  <v type="int" >       24 </v>
  <v type="int" >       46 </v>
  <v type="int" >       47 </v>
  <v type="int" >       48 </v>
  <v type="int" >        2 </v>
  <v type="int" >        4 </v>
  <v type="int" >        3 </v>
  <v type="int" >       35 </v>
  <v type="int" >       34 </v>
  <v type="int" >       42 </v>
  <v type="int" >       39 </v>
  <v type="int" >       41 </v>
  <v type="int" >       37 </v>
  <v type="int" >       21 </v>
  <v type="int" >       25 </v>
  <v type="int" >       29 </v>
  <v type="int" >       49 </v>
  <v type="int" >       20 </v>
  <v type="int" >       53 </v>
  <v type="int" >       57 </v>
  <v type="int" >       59 </v>
  <v type="int" >       54 </v>
  <v type="int" >       62 </v>
  <v type="int" >       63 </v>
  <v type="int" >       36 </v>
  <v type="int" >       40 </v>
  <v type="int" >       44 </v>
  <v type="int" >       45 </v>
  <v type="int" >       58 </v>
  <v type="int" >       55 </v>
  <v type="int" >       56 </v>
  <v type="int" >       60 </v>
  <v type="int" >       61 </v>
  <v type="int" >       64 </v>
  <v type="int" >       50 </v>
  <v type="int" >       51 </v>
  <v type="int" >       52 </v>
  <v type="int" >       80 </v>
  <v type="int" >       75 </v>
  <v type="int" >       70 </v>
  <v type="int" >       65 </v>
  <v type="int" >       67 </v>
  <v type="int" >       66 </v>
  <v type="int" >       78 </v>
  <v type="int" >       79 </v>
  <v type="int" >       72 </v>
  <v type="int" >       76 </v>
  <v type="int" >       71 </v>
  <v type="int" >       74 </v>
  <v type="int" >       77 </v>
  <v type="int" >       69 </v>
  <v type="int" >       73 </v>
  <v type="int" >       68 </v>
  <v type="int" >       81 </v>
  <v type="int" >       91 </v>
  <v type="int" >       86 </v>
  <v type="int" >       96 </v>
  <v type="int" >       95 </v>
  <v type="int" >       94 </v>
  <v type="int" >       83 </v>
  <v type="int" >       82 </v>
  <v type="int" >       85 </v>
  <v type="int" >       89 </v>
  <v type="int" >       90 </v>
  <v type="int" >       87 </v>
  <v type="int" >       84 </v>
  <v type="int" >       88 </v>
  <v type="int" >       92 </v>
  <v type="int" >       93 </v>
  <v type="int" >      100 </v>
  <v type="int" >      110 </v>
  <v type="int" >      111 </v>
  <v type="int" >      108 </v>
  <v type="int" >      104 </v>
  <v type="int" >      103 </v>
  <v type="int" >      106 </v>
  <v type="int" >      112 </v>
  <v type="int" >      109 </v>
  <v type="int" >      102 </v>
  <v type="int" >      107 </v>
  <v type="int" >      105 </v>
  <v type="int" >      101 </v>
  <v type="int" >       99 </v>
  <v type="int" >       98 </v>
  <v type="int" >       97 </v>
  <v type="int" >      113 </v>
  <v type="int" >      115 </v>
  <v type="int" >      114 </v>
  <v type="int" >      116 </v>
 </varray>
 <kpoints>
  <generation param="Gamma">
   <v type="int" name="divisions">       4        4        1 </v>
   <v name="usershift">      0.00000000       0.00000000       0.00000000 </v>
   <v name="genvec1">      0.25000000      -0.00000000       0.00000000 </v>
   <v name="genvec2">      0.00000000       0.25000000       0.00000000 </v>
   <v name="genvec3">      0.00000000       0.00000000       1.00000000 </v>
   <v name="shift">      0.00000000       0.00000000       0.00000000 </v>
  </generation>
  <varray name="kpointlist" >
   <v>       0.00000000       0.00000000       0.00000000 </v>
   <v>       0.25000000      -0.00000000       0.00000000 </v>
   <v>       0.50000000      -0.00000000       0.00000000 </v>
   <v>       0.00000000       0.25000000       0.00000000 </v>
   <v>       0.25000000       0.25000000       0.00000000 </v>
   <v>       0.50000000       0.25000000       0.00000000 </v>
   <v>      -0.25000000       0.25000000       0.00000000 </v>
   <v>       0.00000000       0.50000000       0.00000000 </v>
   <v>       0.25000000       0.50000000       0.00000000 </v>
   <v>       0.50000000       0.50000000       0.00000000 </v>
  </varray>
  <varray name="weights" >
   <v>       0.06250000 </v>
   <v>       0.12500000 </v>
   <v>       0.06250000 </v>
   <v>       0.12500000 </v>
   <v>       0.12500000 </v>
   <v>       0.12500000 </v>
   <v>       0.12500000 </v>
   <v>       0.06250000 </v>
   <v>       0.12500000 </v>
   <v>       0.06250000 </v>
  </varray>
 </kpoints>
 <parameters>
  <separator name="general" >
   <i type="string" name="SYSTEM">unknown system</i>
   <i type="logical" name="LCOMPAT"> F  </i>
  </separator>
  <separator name="electronic" >
   <i type="string" name="PREC">a</i>
   <i name="ENMAX">    500.00000000</i>
   <i name="ENAUG">    605.39200000</i>
   <i name="EDIFF">      0.00000100</i>
   <i type="int" name="IALGO">    38</i>
   <i type="int" name="IWAVPR">    10</i>
   <i type="int" name="NBANDS">   756</i>
   <i name="NELECT">   1256.00000000</i>
   <i type="int" name="TURBO">     0</i>
   <i type="int" name="IRESTART">     0</i>
   <i type="int" name="NREBOOT">     0</i>
   <i type="int" name="NMIN">     0</i>
   <i name="EREF">      0.00000000</i>
   <separator name="electronic smearing" >
    <i type="int" name="ISMEAR">     0</i>
    <i name="SIGMA">      0.05000000</i>
    <i name="KSPACING">      0.50000000</i>
    <i type="logical" name="KGAMMA"> T  </i>
   </separator>
   <separator name="electronic projectors" >
    <i type="logical" name="LREAL"> F  </i>
    <v name="ROPT">      0.00000000      0.00000000</v>
    <i type="int" name="LMAXPAW">  -100</i>
    <i type="int" name="LMAXMIX">     2</i>
    <i type="logical" name="NLSPLINE"> F  </i>
   </separator>
   <separator name="electronic startup" >
    <i type="int" name="ISTART">     0</i>
    <i type="int" name="ICHARG">     2</i>
    <i type="int" name="INIWAV">     1</i>
   </separator>
   <separator name="electronic spin" >
    <i type="int" name="ISPIN">     1</i>
    <i type="logical" name="LNONCOLLINEAR"> F  </i>
    <v name="MAGMOM">      1.00000000      1.00000000      1.00000000      1.00000000      1.00000000      1.00000000      1.00000000      1.00000000      1.00000000      1.00000000      1.00000000      1.00000000      1.00000000      1.00000000      1.00000000      1.00000000      1.00000000      1.00000000      1.00000000      1.00000000
      1.00000000      1.00000000      1.00000000      1.00000000      1.00000000      1.00000000      1.00000000      1.00000000      1.00000000      1.00000000      1.00000000      1.00000000      1.00000000      1.00000000      1.00000000      1.00000000      1.00000000      1.00000000      1.00000000      1.00000000
      1.00000000      1.00000000      1.00000000      1.00000000      1.00000000      1.00000000      1.00000000      1.00000000      1.00000000      1.00000000      1.00000000      1.00000000      1.00000000      1.00000000      1.00000000      1.00000000      1.00000000      1.00000000      1.00000000      1.00000000
      1.00000000      1.00000000      1.00000000      1.00000000      1.00000000      1.00000000      1.00000000      1.00000000      1.00000000      1.00000000      1.00000000      1.00000000      1.00000000      1.00000000      1.00000000      1.00000000      1.00000000      1.00000000      1.00000000      1.00000000
      1.00000000      1.00000000      1.00000000      1.00000000      1.00000000      1.00000000      1.00000000      1.00000000      1.00000000      1.00000000      1.00000000      1.00000000      1.00000000      1.00000000      1.00000000      1.00000000      1.00000000      1.00000000      1.00000000      1.00000000
      1.00000000      1.00000000      1.00000000      1.00000000      1.00000000      1.00000000      1.00000000      1.00000000      1.00000000      1.00000000      1.00000000      1.00000000      1.00000000      1.00000000      1.00000000      1.00000000</v>
    <i name="NUPDOWN">     -1.00000000</i>
    <i type="logical" name="LSORBIT"> F  </i>
    <v name="SAXIS">      0.00000000      0.00000000      1.00000000</v>
    <i type="logical" name="LSPIRAL"> F  </i>
    <v name="QSPIRAL">      0.00000000      0.00000000      0.00000000</v>
    <i type="logical" name="LZEROZ"> F  </i>
   </separator>
   <separator name="electronic exchange-correlation" >
    <i type="logical" name="LASPH"> F  </i>
    <i type="logical" name="LMETAGGA"> F  </i>
   </separator>
   <separator name="electronic convergence" >
    <i type="int" name="NELM">   300</i>
    <i type="int" name="NELMDL">    -5</i>
    <i type="int" name="NELMIN">     5</i>
    <i name="ENINI">    500.00000000</i>
    <separator name="electronic convergence detail" >
     <i type="logical" name="LDIAG"> T  </i>
     <i type="logical" name="LSUBROT"> F  </i>
     <i name="WEIMIN">      0.00000000</i>
     <i name="EBREAK">      0.00000000</i>
     <i name="DEPER">      0.30000000</i>
     <i type="int" name="NRMM">     4</i>
     <i name="TIME">      0.40000000</i>
    </separator>
   </separator>
   <separator name="electronic mixer" >
    <i name="AMIX">      0.40000000</i>
    <i name="BMIX">      1.00000000</i>
    <i name="AMIN">      0.10000000</i>
    <i name="AMIX_MAG">      1.60000000</i>
    <i name="BMIX_MAG">      1.00000000</i>
    <separator name="electronic mixer details" >
     <i type="int" name="IMIX">     4</i>
     <i type="logical" name="MIXFIRST"> F  </i>
     <i type="int" name="MAXMIX">   -45</i>
     <i name="WC">    100.00000000</i>
     <i type="int" name="INIMIX">     1</i>
     <i type="int" name="MIXPRE">     1</i>
     <i type="int" name="MREMOVE">     5</i>
    </separator>
   </separator>
   <separator name="electronic dipolcorrection" >
    <i type="logical" name="LDIPOL"> F  </i>
    <i type="logical" name="LMONO"> F  </i>
    <i type="int" name="IDIPOL">     0</i>
    <i name="EPSILON">      1.00000000</i>
    <v name="DIPOL">   -100.00000000   -100.00000000   -100.00000000</v>
    <i name="EFIELD">      0.00000000</i>
   </separator>
  </separator>
  <separator name="grids" >
   <i type="int" name="NGX">    80</i>
   <i type="int" name="NGY">    80</i>
   <i type="int" name="NGZ">   210</i>
   <i type="int" name="NGXF">   160</i>
   <i type="int" name="NGYF">   160</i>
   <i type="int" name="NGZF">   420</i>
   <i type="logical" name="ADDGRID"> T  </i>
  </separator>
  <separator name="ionic" >
   <i type="int" name="NSW">     0</i>
   <i type="int" name="IBRION">    -1</i>
   <i type="int" name="MDALGO">     0</i>
   <i type="int" name="ISIF">     2</i>
   <i name="PSTRESS">      0.00000000</i>
   <i name="EDIFFG">      0.00001000</i>
   <i type="int" name="NFREE">     0</i>
   <i name="POTIM">      0.50000000</i>
   <i name="SMASS">     -3.00000000</i>
   <i name="SCALEE">      1.00000000</i>
  </separator>
  <separator name="ionic md" >
   <i name="TEBEG">      0.00010000</i>
   <i name="TEEND">      0.00010000</i>
   <i type="int" name="NBLOCK">     1</i>
   <i type="int" name="KBLOCK">     1</i>
   <i type="int" name="NPACO">   256</i>
   <i name="APACO">     16.00000000</i>
  </separator>
  <separator name="symmetry" >
   <i type="int" name="ISYM">     2</i>
   <i name="SYMPREC">      0.00001000</i>
  </separator>
  <separator name="dos" >
   <i type="int" name="LORBIT">     0</i>
   <v name="RWIGS">     -1.00000000     -1.00000000</v>
   <i type="int" name="NEDOS">   301</i>
   <i name="EMIN">     10.00000000</i>
   <i name="EMAX">    -10.00000000</i>
   <i name="EFERMI">      0.00000000</i>
  </separator>
  <separator name="writing" >
   <i type="int" name="NWRITE">     2</i>
   <i type="logical" name="LWAVE"> F  </i>
   <i type="logical" name="LDOWNSAMPLE"> F  </i>
   <i type="logical" name="LCHARG"> F  </i>
   <i type="logical" name="LPARD"> F  </i>
   <i type="logical" name="LVTOT"> F  </i>
   <i type="logical" name="LVHAR"> F  </i>
   <i type="logical" name="LELF"> F  </i>
   <i type="logical" name="LOPTICS"> F  </i>
   <v name="STM">      0.00000000      0.00000000      0.00000000      0.00000000      0.00000000      0.00000000      0.00000000</v>
  </separator>
  <separator name="performance" >
   <i type="int" name="NPAR">     4</i>
   <i type="int" name="NSIM">     4</i>
   <i type="int" name="NBLK">    -1</i>
   <i type="logical" name="LPLANE"> T  </i>
   <i type="logical" name="LSCALAPACK"> F  </i>
   <i type="logical" name="LSCAAWARE"> F  </i>
   <i type="logical" name="LSCALU"> F  </i>
   <i type="logical" name="LASYNC"> F  </i>
   <i type="logical" name="LORBITALREAL"> F  </i>
  </separator>
  <separator name="miscellaneous" >
   <i type="int" name="IDIOT">     3</i>
   <i type="int" name="ISPECIAL">     0</i>
   <i type="logical" name="LMUSIC"> F  </i>
   <v name="POMASS">     63.54600000     16.00000000</v>
   <v name="DARWINR">      0.00000000      0.00000000</v>
   <v name="DARWINV">      1.00000000      1.00000000</v>
   <i type="logical" name="LCORR"> T  </i>
  </separator>
  <i type="logical" name="GGA_COMPAT"> T  </i>
  <i type="logical" name="LBERRY"> F  </i>
  <i type="int" name="ICORELEVEL">     0</i>
  <i type="logical" name="LDAU"> F  </i>
  <i type="int" name="I_CONSTRAINED_M">     0</i>
  <separator name="electronic exchange-correlation" >
   <i type="string" name="GGA">--</i>
   <i type="int" name="VOSKOWN">     0</i>
   <i type="logical" name="LHFCALC"> F  </i>
   <i type="string" name="PRECFOCK"></i>
   <i type="logical" name="LSYMGRAD"> F  </i>
   <i type="logical" name="LHFONE"> F  </i>
   <i type="logical" name="LRHFCALC"> F  </i>
   <i type="logical" name="LTHOMAS"> F  </i>
   <i type="logical" name="LMODELHF"> F  </i>
   <i name="ENCUT4O">     -1.00000000</i>
   <i type="int" name="EXXOEP">     0</i>
   <i type="int" name="FOURORBIT">     0</i>
   <i name="AEXX">      0.00000000</i>
   <i name="HFALPHA">      0.00000000</i>
   <i name="MCALPHA">      0.00000000</i>
   <i name="ALDAX">      1.00000000</i>
   <i name="AGGAX">      1.00000000</i>
   <i name="ALDAC">      1.00000000</i>
   <i name="AGGAC">      1.00000000</i>
   <i type="int" name="NKREDX">     1</i>
   <i type="int" name="NKREDY">     1</i>
   <i type="int" name="NKREDZ">     1</i>
   <i type="logical" name="SHIFTRED"> F  </i>
   <i type="logical" name="ODDONLY"> F  </i>
   <i type="logical" name="EVENONLY"> F  </i>
   <i type="int" name="LMAXFOCK">     0</i>
   <i type="int" name="NMAXFOCKAE">     0</i>
   <i type="logical" name="LFOCKAEDFT"> F  </i>
   <i name="HFSCREEN">      0.00000000</i>
   <i name="HFSCREENC">      0.00000000</i>
   <i type="int" name="NBANDSGWLOW">     0</i>
  </separator>
  <separator name="vdW DFT" >
   <i type="logical" name="LUSE_VDW"> F  </i>
   <i name="Zab_VDW">     -0.84910000</i>
   <i name="PARAM1">      0.12340000</i>
   <i name="PARAM2">      1.00000000</i>
   <i name="PARAM3">      0.00000000</i>
  </separator>
  <separator name="model GW" >
   <i type="int" name="MODEL_GW">     0</i>
   <i name="MODEL_EPS0">     13.16858037</i>
   <i name="MODEL_ALPHA">      1.00000000</i>
  </separator>
  <separator name="linear response parameters" >
   <i type="logical" name="LEPSILON"> F  </i>
   <i type="logical" name="LRPA"> F  </i>
   <i type="logical" name="LNABLA"> F  </i>
   <i type="logical" name="LVEL"> F  </i>
   <i type="int" name="KINTER">     0</i>
   <i name="CSHIFT">      0.10000000</i>
   <i name="OMEGAMAX">     -1.00000000</i>
   <i name="DEG_THRESHOLD">      0.00200000</i>
   <i name="RTIME">     -0.10000000</i>
   <i name="WPLASMAI">      0.00000000</i>
   <v name="DFIELD">      0.00000000      0.00000000      0.00000000</v>
   <v name="WPLASMA">      0.00000000      0.00000000      0.00000000      0.00000000      0.00000000      0.00000000      0.00000000      0.00000000      0.00000000</v>
  </separator>
  <separator name="orbital magnetization" >
   <i type="logical" name="NUCIND"> F  </i>
   <v name="MAGPOS">      0.00000000      0.00000000      0.00000000</v>
   <i type="logical" name="LNICSALL"> T  </i>
   <i type="logical" name="ORBITALMAG"> F  </i>
   <i type="logical" name="LMAGBLOCH"> F  </i>
   <i type="logical" name="LCHIMAG"> F  </i>
   <i type="logical" name="LGAUGE"> T  </i>
   <i type="int" name="MAGATOM">     0</i>
   <v name="MAGDIPOL">      0.00000000      0.00000000      0.00000000</v>
   <v name="AVECCONST">      0.00000000      0.00000000      0.00000000</v>
  </separator>
  <separator name="response functions" >
   <i type="logical" name="LADDER"> F  </i>
   <i type="logical" name="LRPAFORCE"> F  </i>
   <i type="logical" name="LFXC"> F  </i>
   <i type="logical" name="LHARTREE"> T  </i>
   <i type="int" name="IBSE">     0</i>
   <v type="int" name="KPOINT">    -1     0     0     0</v>
   <i type="logical" name="LTCTE"> F  </i>
   <i type="logical" name="LTETE"> F  </i>
   <i type="logical" name="LTRIPLET"> F  </i>
   <i type="logical" name="LFXCEPS"> F  </i>
   <i type="logical" name="LFXHEG"> F  </i>
   <i type="int" name="NATURALO">     2</i>
   <i type="logical" name="L2ORDER"> F  </i>
   <i type="logical" name="LMP2LT"> F  </i>
   <i type="logical" name="LUSEW"> F  </i>
   <i name="ENCUTGW">     -2.00000000</i>
   <i name="ENCUTGWSOFT">     -2.00000000</i>
   <i name="ENCUTLF">     -1.00000000</i>
   <i type="int" name="LMAXMP2">    -1</i>
   <i name="SCISSOR">      0.00000000</i>
   <i type="int" name="NOMEGA">     0</i>
   <i type="int" name="NOMEGAR">     0</i>
   <i type="int" name="NBANDSGW">    -1</i>
   <i type="int" name="NBANDSO">    -1</i>
   <i type="int" name="NBANDSV">    -1</i>
   <i type="int" name="NELM">   300</i>
   <i type="int" name="NELMHF">     1</i>
   <i type="int" name="DIM">     3</i>
   <i type="int" name="ANTIRES">     0</i>
   <i name="OMEGAMAX">    -30.00000000</i>
   <i name="OMEGAMIN">    -30.00000000</i>
   <i name="OMEGATL">   -200.00000000</i>
   <i type="int" name="OMEGAGRID">   140</i>
   <i name="CSHIFT">     -0.10000000</i>
   <i type="logical" name="SELFENERGY"> F  </i>
   <i type="logical" name="LSPECTRAL"> F  </i>
   <i type="logical" name="LSPECTRALGW"> F  </i>
   <i type="logical" name="LSINGLES"> F  </i>
   <i type="logical" name="LFERMIGW"> F  </i>
   <i type="logical" name="ODDONLYGW"> F  </i>
   <i type="logical" name="EVENONLYGW"> F  </i>
   <i type="int" name="NKREDLFX">     1</i>
   <i type="int" name="NKREDLFY">     1</i>
   <i type="int" name="NKREDLFZ">     1</i>
   <i type="int" name="MAXMEM">  2800</i>
   <i type="int" name="TELESCOPE">     0</i>
   <i type="int" name="TAUPAR">     1</i>
   <i type="int" name="OMEGAPAR">    -1</i>
   <i name="LAMBDA">      1.00000000</i>
  </separator>
  <separator name="External order field" >
   <i name="OFIELD_KAPPA">      0.00000000</i>
   <v name="OFIELD_K">      0.00000000      0.00000000      0.00000000</v>
   <i name="OFIELD_Q6_NEAR">      0.00000000</i>
   <i name="OFIELD_Q6_FAR">      0.00000000</i>
   <i name="OFIELD_A">      0.00000000</i>
  </separator>
 </parameters>
 <atominfo>
  <atoms>     116 </atoms>
  <types>       2 </types>
  <array name="atoms" >
   <dimension dim="1">ion</dimension>
   <field type="string">element</field>
   <field type="int">atomtype</field>
   <set>
    <rc><c>Cu</c><c>   1</c></rc>
    <rc><c>Cu</c><c>   1</c></rc>
    <rc><c>Cu</c><c>   1</c></rc>
    <rc><c>Cu</c><c>   1</c></rc>
    <rc><c>Cu</c><c>   1</c></rc>
    <rc><c>Cu</c><c>   1</c></rc>
    <rc><c>Cu</c><c>   1</c></rc>
    <rc><c>Cu</c><c>   1</c></rc>
    <rc><c>Cu</c><c>   1</c></rc>
    <rc><c>Cu</c><c>   1</c></rc>
    <rc><c>Cu</c><c>   1</c></rc>
    <rc><c>Cu</c><c>   1</c></rc>
    <rc><c>Cu</c><c>   1</c></rc>
    <rc><c>Cu</c><c>   1</c></rc>
    <rc><c>Cu</c><c>   1</c></rc>
    <rc><c>Cu</c><c>   1</c></rc>
    <rc><c>Cu</c><c>   1</c></rc>
    <rc><c>Cu</c><c>   1</c></rc>
    <rc><c>Cu</c><c>   1</c></rc>
    <rc><c>Cu</c><c>   1</c></rc>
    <rc><c>Cu</c><c>   1</c></rc>
    <rc><c>Cu</c><c>   1</c></rc>
    <rc><c>Cu</c><c>   1</c></rc>
    <rc><c>Cu</c><c>   1</c></rc>
    <rc><c>Cu</c><c>   1</c></rc>
    <rc><c>Cu</c><c>   1</c></rc>
    <rc><c>Cu</c><c>   1</c></rc>
    <rc><c>Cu</c><c>   1</c></rc>
    <rc><c>Cu</c><c>   1</c></rc>
    <rc><c>Cu</c><c>   1</c></rc>
    <rc><c>Cu</c><c>   1</c></rc>
    <rc><c>Cu</c><c>   1</c></rc>
    <rc><c>Cu</c><c>   1</c></rc>
    <rc><c>Cu</c><c>   1</c></rc>
    <rc><c>Cu</c><c>   1</c></rc>
    <rc><c>Cu</c><c>   1</c></rc>
    <rc><c>Cu</c><c>   1</c></rc>
    <rc><c>Cu</c><c>   1</c></rc>
    <rc><c>Cu</c><c>   1</c></rc>
    <rc><c>Cu</c><c>   1</c></rc>
    <rc><c>Cu</c><c>   1</c></rc>
    <rc><c>Cu</c><c>   1</c></rc>
    <rc><c>Cu</c><c>   1</c></rc>
    <rc><c>Cu</c><c>   1</c></rc>
    <rc><c>Cu</c><c>   1</c></rc>
    <rc><c>Cu</c><c>   1</c></rc>
    <rc><c>Cu</c><c>   1</c></rc>
    <rc><c>Cu</c><c>   1</c></rc>
    <rc><c>Cu</c><c>   1</c></rc>
    <rc><c>Cu</c><c>   1</c></rc>
    <rc><c>Cu</c><c>   1</c></rc>
    <rc><c>Cu</c><c>   1</c></rc>
    <rc><c>Cu</c><c>   1</c></rc>
    <rc><c>Cu</c><c>   1</c></rc>
    <rc><c>Cu</c><c>   1</c></rc>
    <rc><c>Cu</c><c>   1</c></rc>
    <rc><c>Cu</c><c>   1</c></rc>
    <rc><c>Cu</c><c>   1</c></rc>
    <rc><c>Cu</c><c>   1</c></rc>
    <rc><c>Cu</c><c>   1</c></rc>
    <rc><c>Cu</c><c>   1</c></rc>
    <rc><c>Cu</c><c>   1</c></rc>
    <rc><c>Cu</c><c>   1</c></rc>
    <rc><c>Cu</c><c>   1</c></rc>
    <rc><c>Cu</c><c>   1</c></rc>
    <rc><c>Cu</c><c>   1</c></rc>
    <rc><c>Cu</c><c>   1</c></rc>
    <rc><c>Cu</c><c>   1</c></rc>
    <rc><c>Cu</c><c>   1</c></rc>
    <rc><c>Cu</c><c>   1</c></rc>
    <rc><c>Cu</c><c>   1</c></rc>
    <rc><c>Cu</c><c>   1</c></rc>
    <rc><c>Cu</c><c>   1</c></rc>
    <rc><c>Cu</c><c>   1</c></rc>
    <rc><c>Cu</c><c>   1</c></rc>
    <rc><c>Cu</c><c>   1</c></rc>
    <rc><c>Cu</c><c>   1</c></rc>
    <rc><c>Cu</c><c>   1</c></rc>
    <rc><c>Cu</c><c>   1</c></rc>
    <rc><c>Cu</c><c>   1</c></rc>
    <rc><c>Cu</c><c>   1</c></rc>
    <rc><c>Cu</c><c>   1</c></rc>
    <rc><c>Cu</c><c>   1</c></rc>
    <rc><c>Cu</c><c>   1</c></rc>
    <rc><c>Cu</c><c>   1</c></rc>
    <rc><c>Cu</c><c>   1</c></rc>
    <rc><c>Cu</c><c>   1</c></rc>
    <rc><c>Cu</c><c>   1</c></rc>
    <rc><c>Cu</c><c>   1</c></rc>
    <rc><c>Cu</c><c>   1</c></rc>
    <rc><c>Cu</c><c>   1</c></rc>
    <rc><c>Cu</c><c>   1</c></rc>
    <rc><c>Cu</c><c>   1</c></rc>
    <rc><c>Cu</c><c>   1</c></rc>
    <rc><c>Cu</c><c>   1</c></rc>
    <rc><c>Cu</c><c>   1</c></rc>
    <rc><c>Cu</c><c>   1</c></rc>
    <rc><c>Cu</c><c>   1</c></rc>
    <rc><c>Cu</c><c>   1</c></rc>
    <rc><c>Cu</c><c>   1</c></rc>
    <rc><c>Cu</c><c>   1</c></rc>
    <rc><c>Cu</c><c>   1</c></rc>
    <rc><c>Cu</c><c>   1</c></rc>
    <rc><c>Cu</c><c>   1</c></rc>
    <rc><c>Cu</c><c>   1</c></rc>
    <rc><c>Cu</c><c>   1</c></rc>
    <rc><c>Cu</c><c>   1</c></rc>
    <rc><c>Cu</c><c>   1</c></rc>
    <rc><c>Cu</c><c>   1</c></rc>
    <rc><c>Cu</c><c>   1</c></rc>
    <rc><c>Cu</c><c>   1</c></rc>
    <rc><c>Cu</c><c>   1</c></rc>
    <rc><c>O </c><c>   2</c></rc>
    <rc><c>O </c><c>   2</c></rc>
    <rc><c>O </c><c>   2</c></rc>
    <rc><c>O </c><c>   2</c></rc>
   </set>
  </array>
  <array name="atomtypes" >
   <dimension dim="1">type</dimension>
   <field type="int">atomspertype</field>
   <field type="string">element</field>
   <field>mass</field>
   <field>valence</field>
   <field type="string">pseudopotential</field>
   <set>
    <rc><c> 112</c><c>Cu</c><c>     63.54600000</c><c>     11.00000000</c><c> PAW_PBE Cu 05Jan2001                   </c></rc>
    <rc><c>   4</c><c>O </c><c>     16.00000000</c><c>      6.00000000</c><c> PAW_PBE O 08Apr2002                    </c></rc>
   </set>
  </array>
 </atominfo>
 <structure name="initialpos" >
  <crystal>
   <varray name="basis" >
    <v>      10.28518105       0.00000000       0.00000000 </v>
    <v>       5.14259052       8.90722807       0.00000000 </v>
    <v>       0.00000000       0.00000000      27.79016876 </v>
   </varray>
   <i name="volume">   2545.92553775 </i>
   <varray name="rec_basis" >
    <v>       0.09722726      -0.05613419       0.00000000 </v>
    <v>       0.00000000       0.11226837       0.00000000 </v>
    <v>       0.00000000       0.00000000       0.03598395 </v>
   </varray>
  </crystal>
  <varray name="positions" >
   <v>       0.00000000       0.00000000       0.22663990 </v>
   <v>       0.00000000       0.50000000       0.22663990 </v>
   <v>       0.50000000       0.00000000       0.22663990 </v>
   <v>       0.50000000       0.50000000       0.22663990 </v>
   <v>       0.00000000       0.25000000       0.22663990 </v>
   <v>       0.00000000       0.75000000       0.22663990 </v>
   <v>       0.50000000       0.25000000       0.22663990 </v>
   <v>       0.50000000       0.75000000       0.22663990 </v>
   <v>       0.25000000       0.00000000       0.22663990 </v>
   <v>       0.25000000       0.50000000       0.22663990 </v>
   <v>       0.75000000       0.00000000       0.22663990 </v>
   <v>       0.75000000       0.50000000       0.22663990 </v>
   <v>       0.25000000       0.25000000       0.22663990 </v>
   <v>       0.25000000       0.75000000       0.22663990 </v>
   <v>       0.75000000       0.25000000       0.22663990 </v>
   <v>       0.75000000       0.75000000       0.22663990 </v>
   <v>       0.16666666       0.16666666       0.30218653 </v>
   <v>       0.16666666       0.66666666       0.30218653 </v>
   <v>       0.66666666       0.16666666       0.30218653 </v>
   <v>       0.66666666       0.66666666       0.30218653 </v>
   <v>       0.16666666       0.41666666       0.30218653 </v>
   <v>       0.16666666       0.91666666       0.30218653 </v>
   <v>       0.66666666       0.41666666       0.30218653 </v>
   <v>       0.66666666       0.91666666       0.30218653 </v>
   <v>       0.41666666       0.16666666       0.30218653 </v>
   <v>       0.41666666       0.66666666       0.30218653 </v>
   <v>       0.91666666       0.16666666       0.30218653 </v>
   <v>       0.91666666       0.66666666       0.30218653 </v>
   <v>       0.41666666       0.41666666       0.30218653 </v>
   <v>       0.41666666       0.91666666       0.30218653 </v>
   <v>       0.91666666       0.41666666       0.30218653 </v>
   <v>       0.91666666       0.91666666       0.30218653 </v>
   <v>       0.08333333       0.08333333       0.37716320 </v>
   <v>       0.08333333       0.58333333       0.37716320 </v>
   <v>       0.58333333       0.08333333       0.37716320 </v>
   <v>       0.58333333       0.58333333       0.37716320 </v>
   <v>       0.08351614       0.33324190       0.37729758 </v>
   <v>       0.08351614       0.83324190       0.37729758 </v>
   <v>       0.58351614       0.33324190       0.37729758 </v>
   <v>       0.58351614       0.83324190       0.37729758 </v>
   <v>       0.33324190       0.08351614       0.37729758 </v>
   <v>       0.33324190       0.58351614       0.37729758 </v>
   <v>       0.83324190       0.08351614       0.37729758 </v>
   <v>       0.83324190       0.58351614       0.37729758 </v>
   <v>       0.33324190       0.33324190       0.37729758 </v>
   <v>       0.33324190       0.83324190       0.37729758 </v>
   <v>       0.83324190       0.33324190       0.37729758 </v>
   <v>       0.83324190       0.83324190       0.37729758 </v>
   <v>       0.00012997       0.00012997       0.45242342 </v>
   <v>       0.00012997       0.50012997       0.45242342 </v>
   <v>       0.50012997       0.00012997       0.45242342 </v>
   <v>       0.50012997       0.50012997       0.45242342 </v>
   <v>       0.00012997       0.24974005       0.45242342 </v>
   <v>       0.00012997       0.74974005       0.45242342 </v>
   <v>       0.50012997       0.24974005       0.45242342 </v>
   <v>       0.50012997       0.74974005       0.45242342 </v>
   <v>       0.24974005       0.00012997       0.45242342 </v>
   <v>       0.24974005       0.50012997       0.45242342 </v>
   <v>       0.74974005       0.00012997       0.45242342 </v>
   <v>       0.74974005       0.50012997       0.45242342 </v>
   <v>       0.25000000       0.25000000       0.45288750 </v>
   <v>       0.25000000       0.75000000       0.45288750 </v>
   <v>       0.75000000       0.25000000       0.45288750 </v>
   <v>       0.75000000       0.75000000       0.45288750 </v>
   <v>       0.16660598       0.16660598       0.52813907 </v>
   <v>       0.16660598       0.66660598       0.52813907 </v>
   <v>       0.66660598       0.16660598       0.52813907 </v>
   <v>       0.66660598       0.66660598       0.52813907 </v>
   <v>       0.16660598       0.41678801       0.52813907 </v>
   <v>       0.16660598       0.91678801       0.52813907 </v>
   <v>       0.66660598       0.41678801       0.52813907 </v>
   <v>       0.66660598       0.91678801       0.52813907 </v>
   <v>       0.41678801       0.16660598       0.52813907 </v>
   <v>       0.41678801       0.66660598       0.52813907 </v>
   <v>       0.91678801       0.16660598       0.52813907 </v>
   <v>       0.91678801       0.66660598       0.52813907 </v>
   <v>       0.41666666       0.41666666       0.52741939 </v>
   <v>       0.41666666       0.91666666       0.52741939 </v>
   <v>       0.91666666       0.41666666       0.52741939 </v>
   <v>       0.91666666       0.91666666       0.52741939 </v>
   <v>       0.08333333       0.08333333       0.60253339 </v>
   <v>       0.08333333       0.58333333       0.60253339 </v>
   <v>       0.58333333       0.08333333       0.60253339 </v>
   <v>       0.58333333       0.58333333       0.60253339 </v>
   <v>       0.08130935       0.33434529       0.60320464 </v>
   <v>       0.08130935       0.83434529       0.60320464 </v>
   <v>       0.58130935       0.33434529       0.60320464 </v>
   <v>       0.58130935       0.83434529       0.60320464 </v>
   <v>       0.33434529       0.08130935       0.60320464 </v>
   <v>       0.33434529       0.58130935       0.60320464 </v>
   <v>       0.83434529       0.08130935       0.60320464 </v>
   <v>       0.83434529       0.58130935       0.60320464 </v>
   <v>       0.33434529       0.33434529       0.60320464 </v>
   <v>       0.33434529       0.83434529       0.60320464 </v>
   <v>       0.83434529       0.33434529       0.60320464 </v>
   <v>       0.83434529       0.83434529       0.60320464 </v>
   <v>       0.49714648       0.49714648       0.68057248 </v>
   <v>       0.49714648       0.99714648       0.68057248 </v>
   <v>       0.99714648       0.49714648       0.68057248 </v>
   <v>       0.99714648       0.99714648       0.68057248 </v>
   <v>       0.49714648       0.25570704       0.68057248 </v>
   <v>       0.49714648       0.75570704       0.68057248 </v>
   <v>       0.99714648       0.25570704       0.68057248 </v>
   <v>       0.99714648       0.75570704       0.68057248 </v>
   <v>       0.25570704       0.49714648       0.68057248 </v>
   <v>       0.25570704       0.99714648       0.68057248 </v>
   <v>       0.75570704       0.49714648       0.68057248 </v>
   <v>       0.75570704       0.99714648       0.68057248 </v>
   <v>       0.25137500       0.25000000       0.67531760 </v>
   <v>       0.25000000       0.75000000       0.67480871 </v>
   <v>       0.75000000       0.25000000       0.67480871 </v>
   <v>       0.75000000       0.75000000       0.67480871 </v>
   <v>       0.08333333       0.08333333       0.72043888 </v>
   <v>       0.08333333       0.58333333       0.72043888 </v>
   <v>       0.58333333       0.08333333       0.72043888 </v>
   <v>       0.58333333       0.58333333       0.72043888 </v>
  </varray>
 </structure>
 <calculation>
  <scstep>
   <time name="dav">  164.69  164.99</time>
   <time name="total">  165.28  165.59</time>
   <energy>
    <i name="alphaZ">   6463.29446255 </i>
    <i name="ewald"> 664510.15487832 </i>
    <i name="hartreedc">-815265.31494569 </i>
    <i name="XCdc">   5009.41694530 </i>
    <i name="pawpsdc"> 122173.85035501 </i>
    <i name="pawaedc">-138312.01710912 </i>
    <i name="eentropy">     -0.02865800 </i>
    <i name="bandstr">   8852.97922499 </i>
    <i name="atom"> 157518.83071590 </i>
    <i name="e_fr_energy">  10951.16586926 </i>
    <i name="e_wo_entrp">  10951.19452726 </i>
    <i name="e_0_energy">  10951.18019826 </i>
   </energy>
  </scstep>
  <scstep>
   <time name="dav">  163.70  163.99</time>
   <time name="total">  163.72  164.01</time>
   <energy>
    <i name="e_fr_energy">   1073.97796775 </i>
    <i name="e_wo_entrp">   1074.01750115 </i>
    <i name="e_0_energy">   1073.99773445 </i>
   </energy>
  </scstep>
  <scstep>
   <time name="dav">  161.79  162.02</time>
   <time name="total">  161.82  162.04</time>
   <energy>
    <i name="e_fr_energy">   -373.58706010 </i>
    <i name="e_wo_entrp">   -373.52126929 </i>
    <i name="e_0_energy">   -373.55416469 </i>
   </energy>
  </scstep>
  <scstep>
   <time name="dav">  168.14  168.38</time>
   <time name="total">  168.16  168.41</time>
   <energy>
    <i name="e_fr_energy">   -524.81546234 </i>
    <i name="e_wo_entrp">   -524.75215328 </i>
    <i name="e_0_energy">   -524.78380781 </i>
   </energy>
  </scstep>
  <scstep>
   <time name="dav">  164.64  164.87</time>
   <time name="total">  171.34  171.58</time>
   <energy>
    <i name="e_fr_energy">   -530.86595171 </i>
    <i name="e_wo_entrp">   -530.80263803 </i>
    <i name="e_0_energy">   -530.83429487 </i>
   </energy>
  </scstep>
  <scstep>
   <time name="dav">  164.78  165.00</time>
   <time name="total">  171.10  171.33</time>
   <energy>
    <i name="e_fr_energy">   -478.09606904 </i>
    <i name="e_wo_entrp">   -478.03971390 </i>
    <i name="e_0_energy">   -478.06789147 </i>
   </energy>
  </scstep>
  <scstep>
   <time name="dav">  175.70  176.17</time>
   <time name="total">  180.69  181.19</time>
   <energy>
    <i name="e_fr_energy">   -511.10424919 </i>
    <i name="e_wo_entrp">   -510.98339630 </i>
    <i name="e_0_energy">   -511.04382275 </i>
   </energy>
  </scstep>
  <scstep>
   <time name="dav">  191.71  191.97</time>
   <time name="total">  196.72  197.02</time>
   <energy>
    <i name="e_fr_energy">   -444.81827629 </i>
    <i name="e_wo_entrp">   -444.73426728 </i>
    <i name="e_0_energy">   -444.77627179 </i>
   </energy>
  </scstep>
  <scstep>
   <time name="dav">  197.36  197.65</time>
   <time name="total">  204.24  204.59</time>
   <energy>
    <i name="e_fr_energy">   -428.51254072 </i>
    <i name="e_wo_entrp">   -428.47341607 </i>
    <i name="e_0_energy">   -428.49297840 </i>
   </energy>
  </scstep>
  <scstep>
   <time name="dav">  173.61  173.83</time>
   <time name="total">  178.62  178.90</time>
   <energy>
    <i name="e_fr_energy">   -429.30156919 </i>
    <i name="e_wo_entrp">   -429.24822114 </i>
    <i name="e_0_energy">   -429.27489516 </i>
   </energy>
  </scstep>
  <scstep>
   <time name="dav">  173.31  173.52</time>
   <time name="total">  178.34  178.60</time>
   <energy>
    <i name="e_fr_energy">   -427.93359220 </i>
    <i name="e_wo_entrp">   -427.86712122 </i>
    <i name="e_0_energy">   -427.90035671 </i>
   </energy>
  </scstep>
  <scstep>
   <time name="dav">  194.42  194.73</time>
   <time name="total">  200.09  232.92</time>
   <energy>
    <i name="e_fr_energy">   -427.70103880 </i>
    <i name="e_wo_entrp">   -427.64623925 </i>
    <i name="e_0_energy">   -427.67363903 </i>
   </energy>
  </scstep>
  <scstep>
   <time name="dav">  173.11  173.39</time>
   <time name="total">  178.08  179.11</time>
   <energy>
    <i name="e_fr_energy">   -427.64656007 </i>
    <i name="e_wo_entrp">   -427.59198543 </i>
    <i name="e_0_energy">   -427.61927275 </i>
   </energy>
  </scstep>
  <scstep>
   <time name="dav">  173.63  173.84</time>
   <time name="total">  180.62  180.84</time>
   <energy>
    <i name="e_fr_energy">   -427.54152258 </i>
    <i name="e_wo_entrp">   -427.49238086 </i>
    <i name="e_0_energy">   -427.51695172 </i>
   </energy>
  </scstep>
  <scstep>
   <time name="dav">  165.63  165.95</time>
   <time name="total">  170.62  170.94</time>
   <energy>
    <i name="e_fr_energy">   -427.61111943 </i>
    <i name="e_wo_entrp">   -427.56270147 </i>
    <i name="e_0_energy">   -427.58691045 </i>
   </energy>
  </scstep>
  <scstep>
   <time name="dav">  162.71  163.08</time>
   <time name="total">  167.72  168.10</time>
   <energy>
    <i name="e_fr_energy">   -427.51249427 </i>
    <i name="e_wo_entrp">   -427.46295432 </i>
    <i name="e_0_energy">   -427.48772430 </i>
   </energy>
  </scstep>
  <scstep>
   <time name="dav">  167.62  167.83</time>
   <time name="total">  172.63  172.84</time>
   <energy>
    <i name="e_fr_energy">   -427.47888210 </i>
    <i name="e_wo_entrp">   -427.42776936 </i>
    <i name="e_0_energy">   -427.45332573 </i>
   </energy>
  </scstep>
  <scstep>
   <time name="dav">  190.46  190.71</time>
   <time name="total">  197.13  197.39</time>
   <energy>
    <i name="e_fr_energy">   -427.46531133 </i>
    <i name="e_wo_entrp">   -427.41288231 </i>
    <i name="e_0_energy">   -427.43909682 </i>
   </energy>
  </scstep>
  <scstep>
   <time name="dav">  210.90  211.18</time>
   <time name="total">  215.89  216.18</time>
   <energy>
    <i name="e_fr_energy">   -427.46526223 </i>
    <i name="e_wo_entrp">   -427.41228713 </i>
    <i name="e_0_energy">   -427.43877468 </i>
   </energy>
  </scstep>
  <scstep>
   <time name="dav">  161.82  162.04</time>
   <time name="total">  166.85  167.07</time>
   <energy>
    <i name="e_fr_energy">   -427.46572294 </i>
    <i name="e_wo_entrp">   -427.41255712 </i>
    <i name="e_0_energy">   -427.43914003 </i>
   </energy>
  </scstep>
  <scstep>
   <time name="dav">  158.19  158.38</time>
   <time name="total">  163.18  163.37</time>
   <energy>
    <i name="e_fr_energy">   -427.46617092 </i>
    <i name="e_wo_entrp">   -427.41272306 </i>
    <i name="e_0_energy">   -427.43944699 </i>
   </energy>
  </scstep>
  <scstep>
   <time name="dav">  160.44  160.65</time>
   <time name="total">  165.44  165.66</time>
   <energy>
    <i name="e_fr_energy">   -427.46617495 </i>
    <i name="e_wo_entrp">   -427.41300154 </i>
    <i name="e_0_energy">   -427.43958824 </i>
   </energy>
  </scstep>
  <scstep>
   <time name="dav">  158.01  158.36</time>
   <time name="total">  162.99  163.35</time>
   <energy>
    <i name="e_fr_energy">   -427.46623806 </i>
    <i name="e_wo_entrp">   -427.41305861 </i>
    <i name="e_0_energy">   -427.43964834 </i>
   </energy>
  </scstep>
  <scstep>
   <time name="dav">  159.88  160.08</time>
   <time name="total">  164.86  165.07</time>
   <energy>
    <i name="e_fr_energy">   -427.46638375 </i>
    <i name="e_wo_entrp">   -427.41321691 </i>
    <i name="e_0_energy">   -427.43980033 </i>
   </energy>
  </scstep>
  <scstep>
   <time name="dav">  182.51  182.74</time>
   <time name="total">  187.51  187.75</time>
   <energy>
    <i name="e_fr_energy">   -427.46654314 </i>
    <i name="e_wo_entrp">   -427.41340261 </i>
    <i name="e_0_energy">   -427.43997288 </i>
   </energy>
  </scstep>
  <scstep>
   <time name="dav">  171.73  171.95</time>
   <time name="total">  176.87  177.10</time>
   <energy>
    <i name="e_fr_energy">   -427.46676910 </i>
    <i name="e_wo_entrp">   -427.41362956 </i>
    <i name="e_0_energy">   -427.44019933 </i>
   </energy>
  </scstep>
  <scstep>
   <time name="dav">  165.28  165.48</time>
   <time name="total">  171.04  171.26</time>
   <energy>
    <i name="e_fr_energy">   -427.46703280 </i>
    <i name="e_wo_entrp">   -427.41389508 </i>
    <i name="e_0_energy">   -427.44046394 </i>
   </energy>
  </scstep>
  <scstep>
   <time name="dav">  161.99  162.19</time>
   <time name="total">  166.97  167.17</time>
   <energy>
    <i name="e_fr_energy">   -427.46719989 </i>
    <i name="e_wo_entrp">   -427.41407402 </i>
    <i name="e_0_energy">   -427.44063695 </i>
   </energy>
  </scstep>
  <scstep>
   <time name="dav">  157.73  157.95</time>
   <time name="total">  162.75  162.97</time>
   <energy>
    <i name="e_fr_energy">   -427.46731968 </i>
    <i name="e_wo_entrp">   -427.41420487 </i>
    <i name="e_0_energy">   -427.44076227 </i>
   </energy>
  </scstep>
  <scstep>
   <time name="dav">  191.51  193.45</time>
   <time name="total">  196.53  198.47</time>
   <energy>
    <i name="e_fr_energy">   -427.46743454 </i>
    <i name="e_wo_entrp">   -427.41432356 </i>
    <i name="e_0_energy">   -427.44087905 </i>
   </energy>
  </scstep>
  <scstep>
   <time name="dav">  131.30  131.56</time>
   <time name="total">  138.19  138.46</time>
   <energy>
    <i name="e_fr_energy">   -427.46750754 </i>
    <i name="e_wo_entrp">   -427.41438655 </i>
    <i name="e_0_energy">   -427.44094705 </i>
   </energy>
  </scstep>
  <scstep>
   <time name="dav">  150.55  150.74</time>
   <time name="total">  155.75  155.94</time>
   <energy>
    <i name="e_fr_energy">   -427.46758277 </i>
    <i name="e_wo_entrp">   -427.41444648 </i>
    <i name="e_0_energy">   -427.44101463 </i>
   </energy>
  </scstep>
  <scstep>
   <time name="dav">  125.51  125.66</time>
   <time name="total">  132.60  132.75</time>
   <energy>
    <i name="e_fr_energy">   -427.46760680 </i>
    <i name="e_wo_entrp">   -427.41446899 </i>
    <i name="e_0_energy">   -427.44103790 </i>
   </energy>
  </scstep>
  <scstep>
   <time name="dav">  112.45  112.59</time>
   <time name="total">  117.46  117.60</time>
   <energy>
    <i name="e_fr_energy">   -427.46763303 </i>
    <i name="e_wo_entrp">   -427.41449871 </i>
    <i name="e_0_energy">   -427.44106587 </i>
   </energy>
  </scstep>
  <scstep>
   <time name="dav">  114.71  114.87</time>
   <time name="total">  119.72  119.88</time>
   <energy>
    <i name="e_fr_energy">   -427.46765313 </i>
    <i name="e_wo_entrp">   -427.41452496 </i>
    <i name="e_0_energy">   -427.44108905 </i>
   </energy>
  </scstep>
  <scstep>
   <time name="dav">  115.80  115.98</time>
   <time name="total">  120.78  120.97</time>
   <energy>
    <i name="e_fr_energy">   -427.46765991 </i>
    <i name="e_wo_entrp">   -427.41453413 </i>
    <i name="e_0_energy">   -427.44109702 </i>
   </energy>
  </scstep>
  <scstep>
   <time name="dav">  116.20  116.35</time>
   <time name="total">  121.17  121.33</time>
   <energy>
    <i name="e_fr_energy">   -427.46766755 </i>
    <i name="e_wo_entrp">   -427.41454146 </i>
    <i name="e_0_energy">   -427.44110451 </i>
   </energy>
  </scstep>
  <scstep>
   <time name="dav">  114.95  115.11</time>
   <time name="total">  121.51  121.68</time>
   <energy>
    <i name="e_fr_energy">   -427.46767112 </i>
    <i name="e_wo_entrp">   -427.41454289 </i>
    <i name="e_0_energy">   -427.44110701 </i>
   </energy>
  </scstep>
  <scstep>
   <time name="dav">  110.57  110.71</time>
   <time name="total">  117.36  117.50</time>
   <energy>
    <i name="e_fr_energy">   -427.46767249 </i>
    <i name="e_wo_entrp">   -427.41454380 </i>
    <i name="e_0_energy">   -427.44110815 </i>
   </energy>
  </scstep>
  <scstep>
   <time name="dav">  108.60  108.73</time>
   <time name="total">  113.59  113.73</time>
   <energy>
    <i name="e_fr_energy">   -427.46767376 </i>
    <i name="e_wo_entrp">   -427.41454459 </i>
    <i name="e_0_energy">   -427.44110918 </i>
   </energy>
  </scstep>
  <scstep>
   <time name="dav">  112.70  112.97</time>
   <time name="total">  113.19  113.47</time>
   <energy>
    <i name="alphaZ">   6463.29446255 </i>
    <i name="ewald"> 664510.15487832 </i>
    <i name="hartreedc">-813301.85047216 </i>
    <i name="XCdc">   4896.81967508 </i>
    <i name="pawpsdc"> 123758.98267062 </i>
    <i name="pawaedc">-139976.01063117 </i>
    <i name="eentropy">     -0.05312909 </i>
    <i name="bandstr">  -4297.63584434 </i>
    <i name="atom"> 157518.83071590 </i>
    <i name="e_fr_energy">   -427.46767430 </i>
    <i name="e_wo_entrp">   -427.41454520 </i>
    <i name="e_0_energy">   -427.44110975 </i>
   </energy>
  </scstep>
  <structure>
   <crystal>
    <varray name="basis" >
     <v>      10.28518105       0.00000000       0.00000000 </v>
     <v>       5.14259052       8.90722807       0.00000000 </v>
     <v>       0.00000000       0.00000000      27.79016876 </v>
    </varray>
    <i name="volume">   2545.92553775 </i>
    <varray name="rec_basis" >
     <v>       0.09722726      -0.05613419       0.00000000 </v>
     <v>       0.00000000       0.11226837       0.00000000 </v>
     <v>       0.00000000       0.00000000       0.03598395 </v>
    </varray>
   </crystal>
   <varray name="positions" >
    <v>       0.00000000       0.00000000       0.22663990 </v>
    <v>       0.00000000       0.50000000       0.22663990 </v>
    <v>       0.50000000       0.00000000       0.22663990 </v>
    <v>       0.50000000       0.50000000       0.22663990 </v>
    <v>       0.00000000       0.25000000       0.22663990 </v>
    <v>       0.00000000       0.75000000       0.22663990 </v>
    <v>       0.50000000       0.25000000       0.22663990 </v>
    <v>       0.50000000       0.75000000       0.22663990 </v>
    <v>       0.25000000       0.00000000       0.22663990 </v>
    <v>       0.25000000       0.50000000       0.22663990 </v>
    <v>       0.75000000       0.00000000       0.22663990 </v>
    <v>       0.75000000       0.50000000       0.22663990 </v>
    <v>       0.25000000       0.25000000       0.22663990 </v>
    <v>       0.25000000       0.75000000       0.22663990 </v>
    <v>       0.75000000       0.25000000       0.22663990 </v>
    <v>       0.75000000       0.75000000       0.22663990 </v>
    <v>       0.16666666       0.16666666       0.30218653 </v>
    <v>       0.16666666       0.66666666       0.30218653 </v>
    <v>       0.66666666       0.16666666       0.30218653 </v>
    <v>       0.66666666       0.66666666       0.30218653 </v>
    <v>       0.16666666       0.41666666       0.30218653 </v>
    <v>       0.16666666       0.91666666       0.30218653 </v>
    <v>       0.66666666       0.41666666       0.30218653 </v>
    <v>       0.66666666       0.91666666       0.30218653 </v>
    <v>       0.41666666       0.16666666       0.30218653 </v>
    <v>       0.41666666       0.66666666       0.30218653 </v>
    <v>       0.91666666       0.16666666       0.30218653 </v>
    <v>       0.91666666       0.66666666       0.30218653 </v>
    <v>       0.41666666       0.41666666       0.30218653 </v>
    <v>       0.41666666       0.91666666       0.30218653 </v>
    <v>       0.91666666       0.41666666       0.30218653 </v>
    <v>       0.91666666       0.91666666       0.30218653 </v>
    <v>       0.08333333       0.08333333       0.37716320 </v>
    <v>       0.08333333       0.58333333       0.37716320 </v>
    <v>       0.58333333       0.08333333       0.37716320 </v>
    <v>       0.58333333       0.58333333       0.37716320 </v>
    <v>       0.08351614       0.33324190       0.37729758 </v>
    <v>       0.08351614       0.83324190       0.37729758 </v>
    <v>       0.58351614       0.33324190       0.37729758 </v>
    <v>       0.58351614       0.83324190       0.37729758 </v>
    <v>       0.33324190       0.08351614       0.37729758 </v>
    <v>       0.33324190       0.58351614       0.37729758 </v>
    <v>       0.83324190       0.08351614       0.37729758 </v>
    <v>       0.83324190       0.58351614       0.37729758 </v>
    <v>       0.33324190       0.33324190       0.37729758 </v>
    <v>       0.33324190       0.83324190       0.37729758 </v>
    <v>       0.83324190       0.33324190       0.37729758 </v>
    <v>       0.83324190       0.83324190       0.37729758 </v>
    <v>       0.00012997       0.00012997       0.45242342 </v>
    <v>       0.00012997       0.50012997       0.45242342 </v>
    <v>       0.50012997       0.00012997       0.45242342 </v>
    <v>       0.50012997       0.50012997       0.45242342 </v>
    <v>       0.00012997       0.24974005       0.45242342 </v>
    <v>       0.00012997       0.74974005       0.45242342 </v>
    <v>       0.50012997       0.24974005       0.45242342 </v>
    <v>       0.50012997       0.74974005       0.45242342 </v>
    <v>       0.24974005       0.00012997       0.45242342 </v>
    <v>       0.24974005       0.50012997       0.45242342 </v>
    <v>       0.74974005       0.00012997       0.45242342 </v>
    <v>       0.74974005       0.50012997       0.45242342 </v>
    <v>       0.25000000       0.25000000       0.45288750 </v>
    <v>       0.25000000       0.75000000       0.45288750 </v>
    <v>       0.75000000       0.25000000       0.45288750 </v>
    <v>       0.75000000       0.75000000       0.45288750 </v>
    <v>       0.16660598       0.16660598       0.52813907 </v>
    <v>       0.16660598       0.66660598       0.52813907 </v>
    <v>       0.66660598       0.16660598       0.52813907 </v>
    <v>       0.66660598       0.66660598       0.52813907 </v>
    <v>       0.16660598       0.41678801       0.52813907 </v>
    <v>       0.16660598       0.91678801       0.52813907 </v>
    <v>       0.66660598       0.41678801       0.52813907 </v>
    <v>       0.66660598       0.91678801       0.52813907 </v>
    <v>       0.41678801       0.16660598       0.52813907 </v>
    <v>       0.41678801       0.66660598       0.52813907 </v>
    <v>       0.91678801       0.16660598       0.52813907 </v>
    <v>       0.91678801       0.66660598       0.52813907 </v>
    <v>       0.41666666       0.41666666       0.52741939 </v>
    <v>       0.41666666       0.91666666       0.52741939 </v>
    <v>       0.91666666       0.41666666       0.52741939 </v>
    <v>       0.91666666       0.91666666       0.52741939 </v>
    <v>       0.08333333       0.08333333       0.60253339 </v>
    <v>       0.08333333       0.58333333       0.60253339 </v>
    <v>       0.58333333       0.08333333       0.60253339 </v>
    <v>       0.58333333       0.58333333       0.60253339 </v>
    <v>       0.08130935       0.33434529       0.60320464 </v>
    <v>       0.08130935       0.83434529       0.60320464 </v>
    <v>       0.58130935       0.33434529       0.60320464 </v>
    <v>       0.58130935       0.83434529       0.60320464 </v>
    <v>       0.33434529       0.08130935       0.60320464 </v>
    <v>       0.33434529       0.58130935       0.60320464 </v>
    <v>       0.83434529       0.08130935       0.60320464 </v>
    <v>       0.83434529       0.58130935       0.60320464 </v>
    <v>       0.33434529       0.33434529       0.60320464 </v>
    <v>       0.33434529       0.83434529       0.60320464 </v>
    <v>       0.83434529       0.33434529       0.60320464 </v>
    <v>       0.83434529       0.83434529       0.60320464 </v>
    <v>       0.49714648       0.49714648       0.68057248 </v>
    <v>       0.49714648       0.99714648       0.68057248 </v>
    <v>       0.99714648       0.49714648       0.68057248 </v>
    <v>       0.99714648       0.99714648       0.68057248 </v>
    <v>       0.49714648       0.25570704       0.68057248 </v>
    <v>       0.49714648       0.75570704       0.68057248 </v>
    <v>       0.99714648       0.25570704       0.68057248 </v>
    <v>       0.99714648       0.75570704       0.68057248 </v>
    <v>       0.25570704       0.49714648       0.68057248 </v>
    <v>       0.25570704       0.99714648       0.68057248 </v>
    <v>       0.75570704       0.49714648       0.68057248 </v>
    <v>       0.75570704       0.99714648       0.68057248 </v>
    <v>       0.25137500       0.25000000       0.67531760 </v>
    <v>       0.25000000       0.75000000       0.67480871 </v>
    <v>       0.75000000       0.25000000       0.67480871 </v>
    <v>       0.75000000       0.75000000       0.67480871 </v>
    <v>       0.08333333       0.08333333       0.72043888 </v>
    <v>       0.08333333       0.58333333       0.72043888 </v>
    <v>       0.58333333       0.08333333       0.72043888 </v>
    <v>       0.58333333       0.58333333       0.72043888 </v>
   </varray>
  </structure>
  <varray name="forces" >
   <v>       0.00787399       0.00460532       0.07168760 </v>
   <v>       0.00787412       0.00456707       0.07175280 </v>
   <v>       0.00789301       0.00453307       0.07178778 </v>
   <v>       0.00794464       0.00458902       0.07162228 </v>
   <v>       0.00000881      -0.00911783       0.07171377 </v>
   <v>      -0.00010120      -0.00908478       0.07165338 </v>
   <v>      -0.00000128      -0.00911664       0.07178310 </v>
   <v>      -0.00000161      -0.00915667       0.07164166 </v>
   <v>      -0.00789143       0.00459253       0.07170945 </v>
   <v>      -0.00791989       0.00454215       0.07174381 </v>
   <v>      -0.00785866       0.00447960       0.07162018 </v>
   <v>      -0.00791160       0.00456809       0.07166387 </v>
   <v>      -0.00000932       0.00000142       0.08623525 </v>
   <v>       0.00002841      -0.00002914       0.08638936 </v>
   <v>      -0.00002206      -0.00000272       0.08636446 </v>
   <v>       0.00003291       0.00003160       0.08633826 </v>
   <v>       0.00699823       0.00405906      -0.07995613 </v>
   <v>       0.00705890       0.00401562      -0.07995718 </v>
   <v>       0.00699914       0.00410039      -0.07997285 </v>
   <v>       0.00703210       0.00401583      -0.07988233 </v>
   <v>      -0.00003381      -0.00808229      -0.07999330 </v>
   <v>       0.00004661      -0.00811468      -0.07995880 </v>
   <v>       0.00007454      -0.00812765      -0.07988891 </v>
   <v>      -0.00004820      -0.00809655      -0.07999058 </v>
   <v>      -0.00700011       0.00402108      -0.08003092 </v>
   <v>      -0.00704365       0.00410858      -0.07989566 </v>
   <v>      -0.00699139       0.00408431      -0.07997795 </v>
   <v>      -0.00702621       0.00400648      -0.07999400 </v>
   <v>      -0.00003737       0.00002294      -0.05925542 </v>
   <v>      -0.00007911       0.00002132      -0.05923519 </v>
   <v>       0.00000126      -0.00004757      -0.05921527 </v>
   <v>       0.00002404      -0.00000068      -0.05915481 </v>
   <v>       0.00004971       0.00006222      -0.00009263 </v>
   <v>      -0.00005750      -0.00005776      -0.00004135 </v>
   <v>      -0.00005165      -0.00000306       0.00000829 </v>
   <v>       0.00000156      -0.00000024       0.00009730 </v>
   <v>       0.00004045      -0.00001285      -0.00007120 </v>
   <v>       0.00000642      -0.00000525      -0.00001498 </v>
   <v>      -0.00007666      -0.00000373      -0.00000062 </v>
   <v>       0.00001258       0.00007201      -0.00005712 </v>
   <v>       0.00001311      -0.00001672      -0.00006292 </v>
   <v>      -0.00000198      -0.00005247       0.00006526 </v>
   <v>      -0.00000664       0.00002508       0.00000209 </v>
   <v>       0.00004657       0.00002688      -0.00004671 </v>
   <v>       0.00006850       0.00003505      -0.00005951 </v>
   <v>       0.00000929      -0.00001115       0.00007286 </v>
   <v>      -0.00003082      -0.00002149       0.00001745 </v>
   <v>      -0.00003657      -0.00001499       0.00001529 </v>
   <v>       0.00007771       0.00004390       0.00006353 </v>
   <v>      -0.00000746      -0.00002629       0.00016306 </v>
   <v>      -0.00005515      -0.00001263       0.00017173 </v>
   <v>       0.00000393      -0.00005468       0.00010009 </v>
   <v>       0.00004936      -0.00004652       0.00008161 </v>
   <v>       0.00000056      -0.00003507       0.00007713 </v>
   <v>      -0.00004476       0.00002344       0.00009850 </v>
   <v>       0.00009862       0.00006926       0.00001909 </v>
   <v>      -0.00002906       0.00010505       0.00001644 </v>
   <v>      -0.00007397      -0.00004258       0.00002526 </v>
   <v>       0.00001511      -0.00000905       0.00009609 </v>
   <v>       0.00012419      -0.00001476      -0.00005382 </v>
   <v>       0.00008302      -0.00000018      -0.00006509 </v>
   <v>      -0.00008677       0.00000746       0.00003217 </v>
   <v>      -0.00007478      -0.00005635      -0.00003671 </v>
   <v>       0.00001182       0.00005056      -0.00010300 </v>
   <v>       0.00037613       0.00015401       0.00111846 </v>
   <v>      -0.00004557       0.00001866      -0.00021914 </v>
   <v>      -0.00001714      -0.00006292      -0.00016825 </v>
   <v>       0.00005450      -0.00002149       0.00015663 </v>
   <v>       0.00010749      -0.00033049       0.00091289 </v>
   <v>      -0.00011436      -0.00006288      -0.00028737 </v>
   <v>       0.00009201      -0.00001466       0.00001679 </v>
   <v>       0.00012658      -0.00003015      -0.00018568 </v>
   <v>      -0.00020026       0.00017666       0.00070327 </v>
   <v>       0.00002810       0.00003706      -0.00012702 </v>
   <v>      -0.00021829      -0.00010060      -0.00031029 </v>
   <v>      -0.00000504       0.00023558      -0.00025944 </v>
   <v>      -0.00007206       0.00001250       0.00008697 </v>
   <v>      -0.00009708      -0.00003581       0.00003940 </v>
   <v>      -0.00013124       0.00001777      -0.00000970 </v>
   <v>      -0.00002375      -0.00000186       0.00014895 </v>
   <v>       0.00027437       0.00030940      -0.00014286 </v>
   <v>      -0.00026328      -0.00003107      -0.00034498 </v>
   <v>       0.00020664      -0.00027264      -0.00053157 </v>
   <v>      -0.00021407       0.00000038      -0.00031024 </v>
   <v>       0.02265044      -0.01445178       0.03566495 </v>
   <v>       0.00009649      -0.00016125      -0.00045012 </v>
   <v>       0.00078222      -0.00011948      -0.00062358 </v>
   <v>       0.00013429      -0.00002847      -0.00025418 </v>
   <v>      -0.00247420       0.01773609       0.02129403 </v>
   <v>       0.00015866       0.00064422      -0.00056683 </v>
   <v>      -0.00017792       0.00017333      -0.00043688 </v>
   <v>       0.00050937      -0.00055896       0.00016504 </v>
   <v>      -0.00784770      -0.00304563       0.00629668 </v>
   <v>      -0.00009038       0.00029351      -0.00012208 </v>
   <v>       0.00089479      -0.00021955       0.00024088 </v>
   <v>      -0.00018543      -0.00000723      -0.00040775 </v>
   <v>       0.00064949       0.00043817      -0.00115313 </v>
   <v>       0.00316934      -0.01090243      -0.00142244 </v>
   <v>       0.00366129      -0.00941561      -0.00316424 </v>
   <v>       0.00042273      -0.00009977      -0.00075183 </v>
   <v>       0.02196811       0.00195161       0.00017959 </v>
   <v>      -0.00010984      -0.00002541      -0.00098108 </v>
   <v>       0.02010784      -0.00015185      -0.00334806 </v>
   <v>       0.00059642       0.00026895      -0.00129942 </v>
   <v>       0.00532028       0.00900427      -0.00005759 </v>
   <v>       0.00457027       0.00956979      -0.00184093 </v>
   <v>       0.00060648      -0.00041436      -0.00078807 </v>
   <v>       0.00089160      -0.00017037      -0.00184163 </v>
   <v>      -0.07948574      -0.00031367      -0.06661901 </v>
   <v>      -0.00002377       0.00044250      -0.00065220 </v>
   <v>       0.00072687      -0.00013392      -0.00054136 </v>
   <v>       0.00018515      -0.00030211      -0.00042718 </v>
   <v>       0.00165268       0.00144058       0.00042768 </v>
   <v>      -0.00085116       0.00009456       0.00388728 </v>
   <v>       0.00181469      -0.00154707       0.00738263 </v>
   <v>      -0.00017960       0.00000253       0.00205872 </v>
  </varray>
  <varray name="stress" >
   <v>      -2.09160618       0.00916880      -0.00998262 </v>
   <v>       0.00916880      -2.09287040      -0.00029562 </v>
   <v>      -0.00998262      -0.00029562      -2.25566144 </v>
  </varray>
  <energy>
   <i name="e_fr_energy">   -427.46767430 </i>
   <i name="e_wo_entrp">   -427.44110975 </i>
   <i name="e_0_energy">     -0.05312909 </i>
  </energy>
  <time name="totalsc"> 6954.05 6999.40</time>
  <eigenvalues>
   <array>
    <dimension dim="1">band</dimension>
    <dimension dim="2">kpoint</dimension>
    <dimension dim="3">spin</dimension>
    <field>eigene</field>
    <field>occ</field>
    <set>
     <set comment="spin 1">
      <set comment="kpoint 1">
       <r>  -18.6070    1.0000 </r>
       <r>  -18.5950    1.0000 </r>
       <r>  -18.5938    1.0000 </r>
       <r>  -18.5931    1.0000 </r>
       <r>   -9.4522    1.0000 </r>
       <r>   -8.9595    1.0000 </r>
       <r>   -8.1727    1.0000 </r>
       <r>   -7.5986    1.0000 </r>
       <r>   -7.5984    1.0000 </r>
       <r>   -7.5979    1.0000 </r>
       <r>   -7.5766    1.0000 </r>
       <r>   -7.5765    1.0000 </r>
       <r>   -7.5761    1.0000 </r>
       <r>   -7.2190    1.0000 </r>
       <r>   -7.2184    1.0000 </r>
       <r>   -7.2172    1.0000 </r>
       <r>   -7.1990    1.0000 </r>
       <r>   -7.1448    1.0000 </r>
       <r>   -7.1445    1.0000 </r>
       <r>   -7.1436    1.0000 </r>
       <r>   -6.6270    1.0000 </r>
       <r>   -6.6262    1.0000 </r>
       <r>   -6.6253    1.0000 </r>
       <r>   -6.4849    1.0000 </r>
       <r>   -6.4843    1.0000 </r>
       <r>   -6.4831    1.0000 </r>
       <r>   -6.2510    1.0000 </r>
       <r>   -5.9486    1.0000 </r>
       <r>   -5.9477    1.0000 </r>
       <r>   -5.9473    1.0000 </r>
       <r>   -5.7417    1.0000 </r>
       <r>   -5.7409    1.0000 </r>
       <r>   -5.7399    1.0000 </r>
       <r>   -5.6683    1.0000 </r>
       <r>   -5.6252    1.0000 </r>
       <r>   -5.6246    1.0000 </r>
       <r>   -5.4381    1.0000 </r>
       <r>   -5.4114    1.0000 </r>
       <r>   -5.4100    1.0000 </r>
       <r>   -5.4095    1.0000 </r>
       <r>   -5.3408    1.0000 </r>
       <r>   -5.3406    1.0000 </r>
       <r>   -5.3401    1.0000 </r>
       <r>   -5.3233    1.0000 </r>
       <r>   -5.2824    1.0000 </r>
       <r>   -5.2824    1.0000 </r>
       <r>   -5.2150    1.0000 </r>
       <r>   -5.2086    1.0000 </r>
       <r>   -5.2080    1.0000 </r>
       <r>   -5.2076    1.0000 </r>
       <r>   -5.1333    1.0000 </r>
       <r>   -5.1332    1.0000 </r>
       <r>   -5.1226    1.0000 </r>
       <r>   -5.0547    1.0000 </r>
       <r>   -5.0325    1.0000 </r>
       <r>   -5.0325    1.0000 </r>
       <r>   -5.0029    1.0000 </r>
       <r>   -5.0028    1.0000 </r>
       <r>   -5.0021    1.0000 </r>
       <r>   -4.9770    1.0000 </r>
       <r>   -4.9769    1.0000 </r>
       <r>   -4.9768    1.0000 </r>
       <r>   -4.9616    1.0000 </r>
       <r>   -4.9614    1.0000 </r>
       <r>   -4.9559    1.0000 </r>
       <r>   -4.9559    1.0000 </r>
       <r>   -4.9553    1.0000 </r>
       <r>   -4.9349    1.0000 </r>
       <r>   -4.8817    1.0000 </r>
       <r>   -4.8815    1.0000 </r>
       <r>   -4.8811    1.0000 </r>
       <r>   -4.8529    1.0000 </r>
       <r>   -4.8528    1.0000 </r>
       <r>   -4.8526    1.0000 </r>
       <r>   -4.8396    1.0000 </r>
       <r>   -4.8238    1.0000 </r>
       <r>   -4.8237    1.0000 </r>
       <r>   -4.8111    1.0000 </r>
       <r>   -4.8110    1.0000 </r>
       <r>   -4.8107    1.0000 </r>
       <r>   -4.7484    1.0000 </r>
       <r>   -4.7481    1.0000 </r>
       <r>   -4.7477    1.0000 </r>
       <r>   -4.7057    1.0000 </r>
       <r>   -4.7056    1.0000 </r>
       <r>   -4.7055    1.0000 </r>
       <r>   -4.7019    1.0000 </r>
       <r>   -4.6936    1.0000 </r>
       <r>   -4.6936    1.0000 </r>
       <r>   -4.6211    1.0000 </r>
       <r>   -4.6209    1.0000 </r>
       <r>   -4.6200    1.0000 </r>
       <r>   -4.5853    1.0000 </r>
       <r>   -4.5850    1.0000 </r>
       <r>   -4.5849    1.0000 </r>
       <r>   -4.5810    1.0000 </r>
       <r>   -4.5774    1.0000 </r>
       <r>   -4.5774    1.0000 </r>
       <r>   -4.5445    1.0000 </r>
       <r>   -4.5379    1.0000 </r>
       <r>   -4.5378    1.0000 </r>
       <r>   -4.5376    1.0000 </r>
       <r>   -4.5375    1.0000 </r>
       <r>   -4.5372    1.0000 </r>
       <r>   -4.5273    1.0000 </r>
       <r>   -4.5272    1.0000 </r>
       <r>   -4.5271    1.0000 </r>
       <r>   -4.5033    1.0000 </r>
       <r>   -4.5031    1.0000 </r>
       <r>   -4.5026    1.0000 </r>
       <r>   -4.4598    1.0000 </r>
       <r>   -4.4597    1.0000 </r>
       <r>   -4.4595    1.0000 </r>
       <r>   -4.4539    1.0000 </r>
       <r>   -4.4539    1.0000 </r>
       <r>   -4.4538    1.0000 </r>
       <r>   -4.4459    1.0000 </r>
       <r>   -4.4458    1.0000 </r>
       <r>   -4.4449    1.0000 </r>
       <r>   -4.4059    1.0000 </r>
       <r>   -4.4050    1.0000 </r>
       <r>   -4.4031    1.0000 </r>
       <r>   -4.3879    1.0000 </r>
       <r>   -4.3875    1.0000 </r>
       <r>   -4.3496    1.0000 </r>
       <r>   -4.3491    1.0000 </r>
       <r>   -4.3487    1.0000 </r>
       <r>   -4.3363    1.0000 </r>
       <r>   -4.2421    1.0000 </r>
       <r>   -4.2417    1.0000 </r>
       <r>   -4.2278    1.0000 </r>
       <r>   -4.2278    1.0000 </r>
       <r>   -4.2266    1.0000 </r>
       <r>   -4.2190    1.0000 </r>
       <r>   -4.2189    1.0000 </r>
       <r>   -4.2189    1.0000 </r>
       <r>   -4.2167    1.0000 </r>
       <r>   -4.2167    1.0000 </r>
       <r>   -4.2167    1.0000 </r>
       <r>   -4.2133    1.0000 </r>
       <r>   -4.2132    1.0000 </r>
       <r>   -4.2132    1.0000 </r>
       <r>   -4.2105    1.0000 </r>
       <r>   -4.2101    1.0000 </r>
       <r>   -4.2095    1.0000 </r>
       <r>   -4.1789    1.0000 </r>
       <r>   -4.1788    1.0000 </r>
       <r>   -4.1787    1.0000 </r>
       <r>   -4.0965    1.0000 </r>
       <r>   -4.0962    1.0000 </r>
       <r>   -4.0959    1.0000 </r>
       <r>   -4.0781    1.0000 </r>
       <r>   -4.0771    1.0000 </r>
       <r>   -4.0768    1.0000 </r>
       <r>   -4.0753    1.0000 </r>
       <r>   -4.0752    1.0000 </r>
       <r>   -4.0743    1.0000 </r>
       <r>   -4.0557    1.0000 </r>
       <r>   -4.0557    1.0000 </r>
       <r>   -4.0550    1.0000 </r>
       <r>   -4.0435    1.0000 </r>
       <r>   -4.0435    1.0000 </r>
       <r>   -4.0434    1.0000 </r>
       <r>   -4.0162    1.0000 </r>
       <r>   -4.0038    1.0000 </r>
       <r>   -4.0037    1.0000 </r>
       <r>   -4.0036    1.0000 </r>
       <r>   -3.9686    1.0000 </r>
       <r>   -3.9685    1.0000 </r>
       <r>   -3.9374    1.0000 </r>
       <r>   -3.9372    1.0000 </r>
       <r>   -3.9371    1.0000 </r>
       <r>   -3.9283    1.0000 </r>
       <r>   -3.9276    1.0000 </r>
       <r>   -3.9276    1.0000 </r>
       <r>   -3.9086    1.0000 </r>
       <r>   -3.9084    1.0000 </r>
       <r>   -3.9079    1.0000 </r>
       <r>   -3.8786    1.0000 </r>
       <r>   -3.8784    1.0000 </r>
       <r>   -3.8775    1.0000 </r>
       <r>   -3.8762    1.0000 </r>
       <r>   -3.8761    1.0000 </r>
       <r>   -3.8751    1.0000 </r>
       <r>   -3.8317    1.0000 </r>
       <r>   -3.8303    1.0000 </r>
       <r>   -3.8301    1.0000 </r>
       <r>   -3.8292    1.0000 </r>
       <r>   -3.8112    1.0000 </r>
       <r>   -3.8112    1.0000 </r>
       <r>   -3.8111    1.0000 </r>
       <r>   -3.7976    1.0000 </r>
       <r>   -3.7976    1.0000 </r>
       <r>   -3.7975    1.0000 </r>
       <r>   -3.7858    1.0000 </r>
       <r>   -3.7854    1.0000 </r>
       <r>   -3.7851    1.0000 </r>
       <r>   -3.7739    1.0000 </r>
       <r>   -3.7736    1.0000 </r>
       <r>   -3.7734    1.0000 </r>
       <r>   -3.7502    1.0000 </r>
       <r>   -3.7496    1.0000 </r>
       <r>   -3.7495    1.0000 </r>
       <r>   -3.7081    1.0000 </r>
       <r>   -3.7081    1.0000 </r>
       <r>   -3.7080    1.0000 </r>
       <r>   -3.7063    1.0000 </r>
       <r>   -3.7062    1.0000 </r>
       <r>   -3.7060    1.0000 </r>
       <r>   -3.6816    1.0000 </r>
       <r>   -3.6814    1.0000 </r>
       <r>   -3.6813    1.0000 </r>
       <r>   -3.6760    1.0000 </r>
       <r>   -3.6759    1.0000 </r>
       <r>   -3.6759    1.0000 </r>
       <r>   -3.6683    1.0000 </r>
       <r>   -3.6675    1.0000 </r>
       <r>   -3.6399    1.0000 </r>
       <r>   -3.6397    1.0000 </r>
       <r>   -3.6395    1.0000 </r>
       <r>   -3.6170    1.0000 </r>
       <r>   -3.6150    1.0000 </r>
       <r>   -3.6145    1.0000 </r>
       <r>   -3.6145    1.0000 </r>
       <r>   -3.6019    1.0000 </r>
       <r>   -3.6017    1.0000 </r>
       <r>   -3.6013    1.0000 </r>
       <r>   -3.6002    1.0000 </r>
       <r>   -3.6001    1.0000 </r>
       <r>   -3.5998    1.0000 </r>
       <r>   -3.5966    1.0000 </r>
       <r>   -3.5965    1.0000 </r>
       <r>   -3.5964    1.0000 </r>
       <r>   -3.5805    1.0000 </r>
       <r>   -3.5801    1.0000 </r>
       <r>   -3.5797    1.0000 </r>
       <r>   -3.5501    1.0000 </r>
       <r>   -3.5496    1.0000 </r>
       <r>   -3.5493    1.0000 </r>
       <r>   -3.5366    1.0000 </r>
       <r>   -3.5296    1.0000 </r>
       <r>   -3.5113    1.0000 </r>
       <r>   -3.5108    1.0000 </r>
       <r>   -3.4471    1.0000 </r>
       <r>   -3.4464    1.0000 </r>
       <r>   -3.4461    1.0000 </r>
       <r>   -3.4413    1.0000 </r>
       <r>   -3.4329    1.0000 </r>
       <r>   -3.4328    1.0000 </r>
       <r>   -3.4325    1.0000 </r>
       <r>   -3.4274    1.0000 </r>
       <r>   -3.4273    1.0000 </r>
       <r>   -3.4273    1.0000 </r>
       <r>   -3.4183    1.0000 </r>
       <r>   -3.4181    1.0000 </r>
       <r>   -3.4176    1.0000 </r>
       <r>   -3.4173    1.0000 </r>
       <r>   -3.4172    1.0000 </r>
       <r>   -3.4150    1.0000 </r>
       <r>   -3.4150    1.0000 </r>
       <r>   -3.4149    1.0000 </r>
       <r>   -3.4094    1.0000 </r>
       <r>   -3.3982    1.0000 </r>
       <r>   -3.3977    1.0000 </r>
       <r>   -3.3976    1.0000 </r>
       <r>   -3.3855    1.0000 </r>
       <r>   -3.3855    1.0000 </r>
       <r>   -3.3746    1.0000 </r>
       <r>   -3.3623    1.0000 </r>
       <r>   -3.3622    1.0000 </r>
       <r>   -3.3613    1.0000 </r>
       <r>   -3.3491    1.0000 </r>
       <r>   -3.3491    1.0000 </r>
       <r>   -3.3464    1.0000 </r>
       <r>   -3.3454    1.0000 </r>
       <r>   -3.3425    1.0000 </r>
       <r>   -3.3355    1.0000 </r>
       <r>   -3.3346    1.0000 </r>
       <r>   -3.3342    1.0000 </r>
       <r>   -3.3139    1.0000 </r>
       <r>   -3.3139    1.0000 </r>
       <r>   -3.3039    1.0000 </r>
       <r>   -3.3037    1.0000 </r>
       <r>   -3.3036    1.0000 </r>
[...]
       <r>   -14.5226     0.0000     8.0000 </r>
       <r>   -14.4284     0.0000     8.0000 </r>
       <r>   -14.3342     0.0000     8.0000 </r>
       <r>   -14.2400     0.0000     8.0000 </r>
       <r>   -14.1458     0.0000     8.0000 </r>
       <r>   -14.0516     0.0000     8.0000 </r>
       <r>   -13.9575     0.0000     8.0000 </r>
       <r>   -13.8633     0.0000     8.0000 </r>
       <r>   -13.7691     0.0000     8.0000 </r>
       <r>   -13.6749     0.0000     8.0000 </r>
       <r>   -13.5807     0.0000     8.0000 </r>
       <r>   -13.4865     0.0000     8.0000 </r>
       <r>   -13.3923     0.0000     8.0000 </r>
       <r>   -13.2981     0.0000     8.0000 </r>
       <r>   -13.2039     0.0000     8.0000 </r>
       <r>   -13.1097     0.0000     8.0000 </r>
       <r>   -13.0156     0.0000     8.0000 </r>
       <r>   -12.9214     0.0000     8.0000 </r>
       <r>   -12.8272     0.0000     8.0000 </r>
       <r>   -12.7330     0.0000     8.0000 </r>
       <r>   -12.6388     0.0000     8.0000 </r>
       <r>   -12.5446     0.0000     8.0000 </r>
       <r>   -12.4504     0.0000     8.0000 </r>
       <r>   -12.3562     0.0000     8.0000 </r>
       <r>   -12.2620     0.0000     8.0000 </r>
       <r>   -12.1678     0.0000     8.0000 </r>
       <r>   -12.0737     0.0000     8.0000 </r>
       <r>   -11.9795     0.0000     8.0000 </r>
       <r>   -11.8853     0.0000     8.0000 </r>
       <r>   -11.7911     0.0000     8.0000 </r>
       <r>   -11.6969     0.0000     8.0000 </r>
       <r>   -11.6027     0.0000     8.0000 </r>
       <r>   -11.5085     0.0000     8.0000 </r>
       <r>   -11.4143     0.0000     8.0000 </r>
       <r>   -11.3201     0.0000     8.0000 </r>
       <r>   -11.2260     0.0000     8.0000 </r>
       <r>   -11.1318     0.0000     8.0000 </r>
       <r>   -11.0376     0.0000     8.0000 </r>
       <r>   -10.9434     0.0000     8.0000 </r>
       <r>   -10.8492     0.0000     8.0000 </r>
       <r>   -10.7550     0.0000     8.0000 </r>
       <r>   -10.6608     0.0000     8.0000 </r>
       <r>   -10.5666     0.0000     8.0000 </r>
       <r>   -10.4724     0.0000     8.0000 </r>
       <r>   -10.3782     0.0000     8.0000 </r>
       <r>   -10.2841     0.0000     8.0000 </r>
       <r>   -10.1899     0.0000     8.0000 </r>
       <r>   -10.0957     0.0000     8.0000 </r>
       <r>   -10.0015     0.0000     8.0000 </r>
       <r>    -9.9073     0.0000     8.0000 </r>
       <r>    -9.8131     0.0000     8.0000 </r>
       <r>    -9.7189     0.0000     8.0000 </r>
       <r>    -9.6247     0.0000     8.0000 </r>
       <r>    -9.5305     0.0177     8.0017 </r>
       <r>    -9.4364     0.8843     8.0850 </r>
       <r>    -9.3422     3.1956     8.3860 </r>
       <r>    -9.2480     5.1006     8.8664 </r>
       <r>    -9.1538     0.2721     8.8920 </r>
       <r>    -9.0596     5.7869     9.4371 </r>
       <r>    -8.9654     6.2150    10.0225 </r>
       <r>    -8.8712     6.4753    10.6324 </r>
       <r>    -8.7770     6.2447    11.2206 </r>
       <r>    -8.6828     0.5817    11.2753 </r>
       <r>    -8.5886    15.2452    12.7113 </r>
       <r>    -8.4945    11.4333    13.7882 </r>
       <r>    -8.4003     6.3143    14.3829 </r>
       <r>    -8.3061     6.2468    14.9713 </r>
       <r>    -8.2119     0.7893    15.0457 </r>
       <r>    -8.1177    12.7042    16.2423 </r>
       <r>    -8.0235    14.6488    17.6220 </r>
       <r>    -7.9293    13.1188    18.8577 </r>
       <r>    -7.8351    19.7599    20.7189 </r>
       <r>    -7.7409     6.9194    21.3706 </r>
       <r>    -7.6468     6.0336    21.9389 </r>
       <r>    -7.5526    12.9509    23.1587 </r>
       <r>    -7.4584    15.6904    24.6366 </r>
       <r>    -7.3642    16.5894    26.1992 </r>
       <r>    -7.2700     8.7381    27.0222 </r>
       <r>    -7.1758    20.6329    28.9656 </r>
       <r>    -7.0816    16.1762    30.4892 </r>
       <r>    -6.9874    13.4595    31.7570 </r>
       <r>    -6.8932    16.3650    33.2984 </r>
       <r>    -6.7990    31.8723    36.3004 </r>
       <r>    -6.7049    15.1846    37.7306 </r>
       <r>    -6.6107    18.6122    39.4837 </r>
       <r>    -6.5165    13.3162    40.7380 </r>
       <r>    -6.4223    24.3496    43.0314 </r>
       <r>    -6.3281    23.7639    45.2698 </r>
       <r>    -6.2339    18.5166    47.0138 </r>
       <r>    -6.1397    46.6512    51.4079 </r>
       <r>    -6.0455    21.0670    53.3922 </r>
       <r>    -5.9513    45.8328    57.7091 </r>
       <r>    -5.8571    21.4428    59.7288 </r>
       <r>    -5.7630    20.3456    61.6452 </r>
       <r>    -5.6688    59.5154    67.2509 </r>
       <r>    -5.5746    86.9797    75.4435 </r>
       <r>    -5.4804    74.2855    82.4404 </r>
       <r>    -5.3862    60.3108    88.1211 </r>
       <r>    -5.2920    94.9198    97.0615 </r>
       <r>    -5.1978    89.1669   105.4601 </r>
       <r>    -5.1036   107.8387   115.6174 </r>
       <r>    -5.0094   119.0850   126.8339 </r>
       <r>    -4.9153   145.1467   140.5052 </r>
       <r>    -4.8211   127.7464   152.5376 </r>
       <r>    -4.7269   126.7119   164.4725 </r>
       <r>    -4.6327   165.5206   180.0629 </r>
       <r>    -4.5385   204.4607   199.3209 </r>
       <r>    -4.4443   240.3658   221.9609 </r>
       <r>    -4.3501   284.3013   248.7391 </r>
       <r>    -4.2559   254.6370   272.7232 </r>
       <r>    -4.1617   219.5981   293.4071 </r>
       <r>    -4.0675   207.0097   312.9052 </r>
       <r>    -3.9734   218.4212   333.4782 </r>
       <r>    -3.8792   273.2102   359.2118 </r>
       <r>    -3.7850   278.5005   385.4436 </r>
       <r>    -3.6908   321.1836   415.6957 </r>
       <r>    -3.5966   318.6609   445.7103 </r>
       <r>    -3.5024   324.7509   476.2984 </r>
       <r>    -3.4082   392.0179   513.2224 </r>
       <r>    -3.3140   477.3998   558.1885 </r>
       <r>    -3.2198   505.6277   605.8133 </r>
       <r>    -3.1257   439.2565   647.1867 </r>
       <r>    -3.0315   452.7614   689.8321 </r>
       <r>    -2.9373   326.0003   720.5379 </r>
       <r>    -2.8431   362.2902   754.6619 </r>
       <r>    -2.7489   347.6534   787.4072 </r>
       <r>    -2.6547   409.5260   825.9803 </r>
       <r>    -2.5605   410.0920   864.6066 </r>
       <r>    -2.4663   388.7870   901.2263 </r>
       <r>    -2.3721   429.3387   941.6655 </r>
       <r>    -2.2779   420.0598   981.2308 </r>
       <r>    -2.1838   439.8406  1022.6592 </r>
       <r>    -2.0896   529.8297  1072.5636 </r>
       <r>    -1.9954   616.2708  1130.6098 </r>
       <r>    -1.9012   436.6021  1171.7332 </r>
       <r>    -1.8070   163.3270  1187.1169 </r>
       <r>    -1.7128    69.8658  1193.6975 </r>
       <r>    -1.6186    52.2299  1198.6170 </r>
       <r>    -1.5244    58.6156  1204.1380 </r>
       <r>    -1.4302    59.1558  1209.7099 </r>
       <r>    -1.3361    89.8108  1218.1691 </r>
       <r>    -1.2419    59.3237  1223.7568 </r>
       <r>    -1.1477    36.1439  1227.1612 </r>
       <r>    -1.0535    11.5534  1228.2494 </r>
       <r>    -0.9593    47.5650  1232.7295 </r>
       <r>    -0.8651    38.0972  1236.3179 </r>
       <r>    -0.7709    44.0204  1240.4641 </r>
       <r>    -0.6767    46.7230  1244.8649 </r>
       <r>    -0.5825    58.4901  1250.3741 </r>
       <r>    -0.4883    20.3046  1252.2866 </r>
       <r>    -0.3942    34.6983  1255.5548 </r>
       <r>    -0.3000    37.6153  1259.0978 </r>
       <r>    -0.2058    41.2235  1262.9806 </r>
       <r>    -0.1116    23.7844  1265.2208 </r>
       <r>    -0.0174    34.9093  1268.5089 </r>
       <r>     0.0768    48.6378  1273.0901 </r>
       <r>     0.1710    42.6321  1277.1056 </r>
       <r>     0.2652    13.1273  1278.3420 </r>
       <r>     0.3594    25.4163  1280.7360 </r>
       <r>     0.4536    43.3235  1284.8166 </r>
       <r>     0.5477    34.1519  1288.0334 </r>
       <r>     0.6419    28.4832  1290.7162 </r>
       <r>     0.7361    54.0269  1295.8049 </r>
       <r>     0.8303    35.5749  1299.1557 </r>
       <r>     0.9245    31.4347  1302.1165 </r>
       <r>     1.0187    29.1222  1304.8596 </r>
       <r>     1.1129    29.0010  1307.5912 </r>
       <r>     1.2071    47.2034  1312.0372 </r>
       <r>     1.3013    19.6692  1313.8899 </r>
       <r>     1.3954    20.2928  1315.8012 </r>
       <r>     1.4896    37.1174  1319.2973 </r>
       <r>     1.5838    32.1164  1322.3223 </r>
       <r>     1.6780    27.9654  1324.9564 </r>
       <r>     1.7722    20.2777  1326.8663 </r>
       <r>     1.8664    41.3659  1330.7626 </r>
       <r>     1.9606    37.2846  1334.2744 </r>
       <r>     2.0548    39.4402  1337.9892 </r>
       <r>     2.1490    24.6715  1340.3130 </r>
       <r>     2.2432    37.9117  1343.8839 </r>
       <r>     2.3373    24.6755  1346.2081 </r>
       <r>     2.4315    22.4456  1348.3222 </r>
       <r>     2.5257    14.8550  1349.7214 </r>
       <r>     2.6199    11.7558  1350.8287 </r>
       <r>     2.7141    19.6057  1352.6753 </r>
       <r>     2.8083    32.5969  1355.7456 </r>
       <r>     2.9025    28.0697  1358.3895 </r>
       <r>     2.9967    27.1633  1360.9480 </r>
       <r>     3.0909    19.5250  1362.7871 </r>
       <r>     3.1850    23.3747  1364.9887 </r>
       <r>     3.2792    21.1778  1366.9834 </r>
       <r>     3.3734     8.6693  1367.8000 </r>
       <r>     3.4676    30.5308  1370.6757 </r>
       <r>     3.5618    31.9959  1373.6893 </r>
       <r>     3.6560    27.7902  1376.3069 </r>
       <r>     3.7502     7.2260  1376.9875 </r>
       <r>     3.8444    21.6370  1379.0255 </r>
       <r>     3.9386    44.2924  1383.1974 </r>
       <r>     4.0328    32.7115  1386.2784 </r>
       <r>     4.1269    41.8895  1390.2240 </r>
       <r>     4.2211    51.0559  1395.0329 </r>
       <r>     4.3153    35.2625  1398.3543 </r>
       <r>     4.4095    18.4832  1400.0952 </r>
       <r>     4.5037    23.0542  1402.2667 </r>
       <r>     4.5979    31.6430  1405.2471 </r>
       <r>     4.6921    37.9565  1408.8222 </r>
       <r>     4.7863    40.9271  1412.6771 </r>
       <r>     4.8805    47.8426  1417.1834 </r>
       <r>     4.9746    38.1831  1420.7799 </r>
       <r>     5.0688    40.1794  1424.5643 </r>
       <r>     5.1630    37.0187  1428.0511 </r>
       <r>     5.2572    28.8293  1430.7665 </r>
       <r>     5.3514    59.4608  1436.3671 </r>
       <r>     5.4456    37.1305  1439.8644 </r>
       <r>     5.5398    54.3313  1444.9819 </r>
       <r>     5.6340    33.9474  1448.1793 </r>
       <r>     5.7282    34.1851  1451.3992 </r>
       <r>     5.8224    33.8608  1454.5886 </r>
       <r>     5.9165    33.0248  1457.6992 </r>
       <r>     6.0107    61.4183  1463.4841 </r>
       <r>     6.1049    54.3540  1468.6037 </r>
       <r>     6.1991    44.7345  1472.8172 </r>
       <r>     6.2933    40.3839  1476.6210 </r>
       <r>     6.3875    36.4687  1480.0559 </r>
       <r>     6.4817    51.2729  1484.8853 </r>
       <r>     6.5759    42.6771  1488.9050 </r>
       <r>     6.6701    35.4190  1492.2411 </r>
       <r>     6.7642    37.3186  1495.7561 </r>
       <r>     6.8584    59.1585  1501.3283 </r>
       <r>     6.9526    48.9664  1505.9404 </r>
       <r>     7.0468    36.6445  1509.3919 </r>
       <r>     7.1410    26.7620  1511.9126 </r>
       <r>     7.2352     0.9277  1512.0000 </r>
       <r>     7.3294     0.0001  1512.0000 </r>
       <r>     7.4236     0.0000  1512.0000 </r>
       <r>     7.5178     0.0000  1512.0000 </r>
       <r>     7.6120     0.0000  1512.0000 </r>
       <r>     7.7061     0.0000  1512.0000 </r>
       <r>     7.8003     0.0000  1512.0000 </r>
       <r>     7.8945     0.0000  1512.0000 </r>
       <r>     7.9887     0.0000  1512.0000 </r>
       <r>     8.0829     0.0000  1512.0000 </r>
       <r>     8.1771     0.0000  1512.0000 </r>
       <r>     8.2713     0.0000  1512.0000 </r>
       <r>     8.3655     0.0000  1512.0000 </r>
      </set>
     </set>
    </array>
   </total>
  </dos>
 </calculation>
 <structure name="finalpos" >
  <crystal>
   <varray name="basis" >
    <v>      10.28518105       0.00000000       0.00000000 </v>
    <v>       5.14259052       8.90722807       0.00000000 </v>
    <v>       0.00000000       0.00000000      27.79016876 </v>
   </varray>
   <i name="volume">   2545.92553775 </i>
   <varray name="rec_basis" >
    <v>       0.09722726      -0.05613419       0.00000000 </v>
    <v>       0.00000000       0.11226837       0.00000000 </v>
    <v>       0.00000000       0.00000000       0.03598395 </v>
   </varray>
  </crystal>
  <varray name="positions" >
   <v>       0.00000000       0.00000000       0.22663990 </v>
   <v>       0.00000000       0.50000000       0.22663990 </v>
   <v>       0.50000000       0.00000000       0.22663990 </v>
   <v>       0.50000000       0.50000000       0.22663990 </v>
   <v>       0.00000000       0.25000000       0.22663990 </v>
   <v>       0.00000000       0.75000000       0.22663990 </v>
   <v>       0.50000000       0.25000000       0.22663990 </v>
   <v>       0.50000000       0.75000000       0.22663990 </v>
   <v>       0.25000000       0.00000000       0.22663990 </v>
   <v>       0.25000000       0.50000000       0.22663990 </v>
   <v>       0.75000000       0.00000000       0.22663990 </v>
   <v>       0.75000000       0.50000000       0.22663990 </v>
   <v>       0.25000000       0.25000000       0.22663990 </v>
   <v>       0.25000000       0.75000000       0.22663990 </v>
   <v>       0.75000000       0.25000000       0.22663990 </v>
   <v>       0.75000000       0.75000000       0.22663990 </v>
   <v>       0.16666666       0.16666666       0.30218653 </v>
   <v>       0.16666666       0.66666666       0.30218653 </v>
   <v>       0.66666666       0.16666666       0.30218653 </v>
   <v>       0.66666666       0.66666666       0.30218653 </v>
   <v>       0.16666666       0.41666666       0.30218653 </v>
   <v>       0.16666666       0.91666666       0.30218653 </v>
   <v>       0.66666666       0.41666666       0.30218653 </v>
   <v>       0.66666666       0.91666666       0.30218653 </v>
   <v>       0.41666666       0.16666666       0.30218653 </v>
   <v>       0.41666666       0.66666666       0.30218653 </v>
   <v>       0.91666666       0.16666666       0.30218653 </v>
   <v>       0.91666666       0.66666666       0.30218653 </v>
   <v>       0.41666666       0.41666666       0.30218653 </v>
   <v>       0.41666666       0.91666666       0.30218653 </v>
   <v>       0.91666666       0.41666666       0.30218653 </v>
   <v>       0.91666666       0.91666666       0.30218653 </v>
   <v>       0.08333333       0.08333333       0.37716320 </v>
   <v>       0.08333333       0.58333333       0.37716320 </v>
   <v>       0.58333333       0.08333333       0.37716320 </v>
   <v>       0.58333333       0.58333333       0.37716320 </v>
   <v>       0.08351614       0.33324190       0.37729758 </v>
   <v>       0.08351614       0.83324190       0.37729758 </v>
   <v>       0.58351614       0.33324190       0.37729758 </v>
   <v>       0.58351614       0.83324190       0.37729758 </v>
   <v>       0.33324190       0.08351614       0.37729758 </v>
   <v>       0.33324190       0.58351614       0.37729758 </v>
   <v>       0.83324190       0.08351614       0.37729758 </v>
   <v>       0.83324190       0.58351614       0.37729758 </v>
   <v>       0.33324190       0.33324190       0.37729758 </v>
   <v>       0.33324190       0.83324190       0.37729758 </v>
   <v>       0.83324190       0.33324190       0.37729758 </v>
   <v>       0.83324190       0.83324190       0.37729758 </v>
   <v>       0.00012997       0.00012997       0.45242342 </v>
   <v>       0.00012997       0.50012997       0.45242342 </v>
   <v>       0.50012997       0.00012997       0.45242342 </v>
   <v>       0.50012997       0.50012997       0.45242342 </v>
   <v>       0.00012997       0.24974005       0.45242342 </v>
   <v>       0.00012997       0.74974005       0.45242342 </v>
   <v>       0.50012997       0.24974005       0.45242342 </v>
   <v>       0.50012997       0.74974005       0.45242342 </v>
   <v>       0.24974005       0.00012997       0.45242342 </v>
   <v>       0.24974005       0.50012997       0.45242342 </v>
   <v>       0.74974005       0.00012997       0.45242342 </v>
   <v>       0.74974005       0.50012997       0.45242342 </v>
   <v>       0.25000000       0.25000000       0.45288750 </v>
   <v>       0.25000000       0.75000000       0.45288750 </v>
   <v>       0.75000000       0.25000000       0.45288750 </v>
   <v>       0.75000000       0.75000000       0.45288750 </v>
   <v>       0.16660598       0.16660598       0.52813907 </v>
   <v>       0.16660598       0.66660598       0.52813907 </v>
   <v>       0.66660598       0.16660598       0.52813907 </v>
   <v>       0.66660598       0.66660598       0.52813907 </v>
   <v>       0.16660598       0.41678801       0.52813907 </v>
   <v>       0.16660598       0.91678801       0.52813907 </v>
   <v>       0.66660598       0.41678801       0.52813907 </v>
   <v>       0.66660598       0.91678801       0.52813907 </v>
   <v>       0.41678801       0.16660598       0.52813907 </v>
   <v>       0.41678801       0.66660598       0.52813907 </v>
   <v>       0.91678801       0.16660598       0.52813907 </v>
   <v>       0.91678801       0.66660598       0.52813907 </v>
   <v>       0.41666666       0.41666666       0.52741939 </v>
   <v>       0.41666666       0.91666666       0.52741939 </v>
   <v>       0.91666666       0.41666666       0.52741939 </v>
   <v>       0.91666666       0.91666666       0.52741939 </v>
   <v>       0.08333333       0.08333333       0.60253339 </v>
   <v>       0.08333333       0.58333333       0.60253339 </v>
   <v>       0.58333333       0.08333333       0.60253339 </v>
   <v>       0.58333333       0.58333333       0.60253339 </v>
   <v>       0.08130935       0.33434529       0.60320464 </v>
   <v>       0.08130935       0.83434529       0.60320464 </v>
   <v>       0.58130935       0.33434529       0.60320464 </v>
   <v>       0.58130935       0.83434529       0.60320464 </v>
   <v>       0.33434529       0.08130935       0.60320464 </v>
   <v>       0.33434529       0.58130935       0.60320464 </v>
   <v>       0.83434529       0.08130935       0.60320464 </v>
   <v>       0.83434529       0.58130935       0.60320464 </v>
   <v>       0.33434529       0.33434529       0.60320464 </v>
   <v>       0.33434529       0.83434529       0.60320464 </v>
   <v>       0.83434529       0.33434529       0.60320464 </v>
   <v>       0.83434529       0.83434529       0.60320464 </v>
   <v>       0.49714648       0.49714648       0.68057248 </v>
   <v>       0.49714648       0.99714648       0.68057248 </v>
   <v>       0.99714648       0.49714648       0.68057248 </v>
   <v>       0.99714648       0.99714648       0.68057248 </v>
   <v>       0.49714648       0.25570704       0.68057248 </v>
   <v>       0.49714648       0.75570704       0.68057248 </v>
   <v>       0.99714648       0.25570704       0.68057248 </v>
   <v>       0.99714648       0.75570704       0.68057248 </v>
   <v>       0.25570704       0.49714648       0.68057248 </v>
   <v>       0.25570704       0.99714648       0.68057248 </v>
   <v>       0.75570704       0.49714648       0.68057248 </v>
   <v>       0.75570704       0.99714648       0.68057248 </v>
   <v>       0.25137500       0.25000000       0.67531760 </v>
   <v>       0.25000000       0.75000000       0.67480871 </v>
   <v>       0.75000000       0.25000000       0.67480871 </v>
   <v>       0.75000000       0.75000000       0.67480871 </v>
   <v>       0.08333333       0.08333333       0.72043888 </v>
   <v>       0.08333333       0.58333333       0.72043888 </v>
   <v>       0.58333333       0.08333333       0.72043888 </v>
   <v>       0.58333333       0.58333333       0.72043888 </v>
  </varray>
 </structure>
</modeling>
