<?xml version="1.0" encoding="ISO-8859-1"?>
<modeling>
 <generator>
  <i name="program" type="string">vasp </i>
  <i name="version" type="string">5.4.4.18Apr17-6-g9f103f2a35  </i>
  <i name="subversion" type="string">(build Feb 09 2021 16:27:36) complex            parallel </i>
  <i name="platform" type="string">IFC15_impi </i>
  <i name="date" type="string">2021 04 29 </i>
  <i name="time" type="string">03:24:02 </i>
 </generator>
 <incar>
  <i type="int" name="ISTART">     0</i>
  <i type="string" name="PREC">a</i>
  <i type="logical" name="ADDGRID"> T  </i>
  <i type="int" name="NELM">   300</i>
  <i type="int" name="NELMIN">     5</i>
  <i type="int" name="IBRION">    -1</i>
  <i name="EDIFF">      0.00000100</i>
  <i name="ENCUT">    500.00000000</i>
  <i type="logical" name="LREAL"> F  </i>
  <i type="int" name="ISMEAR">     0</i>
  <i name="SIGMA">      0.05000000</i>
  <i type="logical" name="LWAVE"> F  </i>
  <i type="logical" name="LCHARG"> F  </i>
  <v type="int" name="KPOINT_BSE">    -1     0     0     0</v>
  <i type="int" name="NELM">   300</i>
 </incar>
 <structure name="primitive_cell" >
  <crystal>
   <varray name="basis" >
    <v>      10.28518105       0.00000000       0.00000000 </v>
    <v>       5.14259052       8.90722807       0.00000000 </v>
    <v>       0.00000000       0.00000000      27.79016876 </v>
   </varray>
   <i name="volume">   2545.92553775 </i>
   <varray name="rec_basis" >
    <v>       0.09722726      -0.05613419       0.00000000 </v>
    <v>       0.00000000       0.11226837       0.00000000 </v>
    <v>       0.00000000       0.00000000       0.03598395 </v>
   </varray>
  </crystal>
  <varray name="positions" >
   <v>       0.00000000       0.00000000       0.22663990 </v>
   <v>       0.16666666      -0.08333334       0.30218653 </v>
   <v>      -0.08333334       0.16666666       0.30218653 </v>
   <v>       0.25000000       0.00000000       0.22663990 </v>
   <v>       0.00000000      -0.25000000       0.22663990 </v>
   <v>       0.25000000      -0.25000000       0.22663990 </v>
   <v>      -0.25000000       0.25000000       0.22663990 </v>
   <v>       0.00000000       0.25000000       0.22663990 </v>
   <v>      -0.25000000       0.00000000       0.22663990 </v>
   <v>      -0.08333334      -0.08333334       0.30218653 </v>
   <v>       0.16666666       0.16666666       0.30218653 </v>
   <v>       0.16666666      -0.33333334       0.30218653 </v>
   <v>      -0.33333334       0.16666666       0.30218653 </v>
   <v>       0.08333333       0.08333333       0.37716320 </v>
   <v>       0.08351614      -0.16675810       0.37729758 </v>
   <v>      -0.16675810       0.08351614       0.37729758 </v>
   <v>       0.41666666      -0.08333334       0.30218653 </v>
   <v>      -0.08333334       0.41666666       0.30218653 </v>
   <v>      -0.33333334       0.41666666       0.30218653 </v>
   <v>       0.41666666      -0.33333334       0.30218653 </v>
   <v>      -0.50000000       0.25000000       0.22663990 </v>
   <v>       0.25000000       0.25000000       0.22663990 </v>
   <v>       0.25000000      -0.50000000       0.22663990 </v>
   <v>      -0.25000000      -0.50000000       0.22663990 </v>
   <v>      -0.25000000      -0.25000000       0.22663990 </v>
   <v>      -0.50000000      -0.25000000       0.22663990 </v>
   <v>      -0.08333334      -0.33333334       0.30218653 </v>
   <v>      -0.33333334      -0.08333334       0.30218653 </v>
   <v>       0.33324190      -0.16675810       0.37729758 </v>
   <v>      -0.16675810       0.33324190       0.37729758 </v>
   <v>      -0.16675810      -0.16675810       0.37729758 </v>
   <v>       0.00000000      -0.50000000       0.22663990 </v>
   <v>      -0.50000000      -0.50000000       0.22663990 </v>
   <v>      -0.50000000       0.00000000       0.22663990 </v>
   <v>      -0.41666667       0.08333333       0.37716320 </v>
   <v>       0.08333333      -0.41666667       0.37716320 </v>
   <v>       0.33324190      -0.41648386       0.37729758 </v>
   <v>      -0.41648386       0.33324190       0.37729758 </v>
   <v>       0.33324190       0.08351614       0.37729758 </v>
   <v>       0.08351614       0.33324190       0.37729758 </v>
   <v>       0.16666666       0.41666666       0.30218653 </v>
   <v>       0.41666666       0.16666666       0.30218653 </v>
   <v>       0.41666666       0.41666666       0.30218653 </v>
   <v>       0.00012997       0.00012997       0.45242342 </v>
   <v>      -0.33333334      -0.33333334       0.30218653 </v>
   <v>       0.00012997       0.24974005       0.45242342 </v>
   <v>       0.24974005       0.00012997       0.45242342 </v>
   <v>      -0.25025995       0.00012997       0.45242342 </v>
   <v>       0.00012997      -0.25025995       0.45242342 </v>
   <v>       0.25000000      -0.25000000       0.45288750 </v>
   <v>      -0.25000000       0.25000000       0.45288750 </v>
   <v>      -0.41666667      -0.41666667       0.37716320 </v>
   <v>      -0.41648386      -0.16675810       0.37729758 </v>
   <v>      -0.16675810      -0.41648386       0.37729758 </v>
   <v>       0.33324190       0.33324190       0.37729758 </v>
   <v>       0.24974005      -0.49987003       0.45242342 </v>
   <v>      -0.49987003       0.24974005       0.45242342 </v>
   <v>      -0.49987003      -0.25025995       0.45242342 </v>
   <v>      -0.25025995      -0.49987003       0.45242342 </v>
   <v>       0.25000000       0.25000000       0.45288750 </v>
   <v>      -0.25000000      -0.25000000       0.45288750 </v>
   <v>       0.00012997      -0.49987003       0.45242342 </v>
   <v>      -0.49987003       0.00012997       0.45242342 </v>
   <v>      -0.49987003      -0.49987003       0.45242342 </v>
   <v>      -0.08333334      -0.08333334      -0.47258061 </v>
   <v>      -0.08321199       0.16660598      -0.47186093 </v>
   <v>       0.16660598      -0.08321199      -0.47186093 </v>
   <v>       0.16660598       0.16660598      -0.47186093 </v>
   <v>      -0.33339402       0.16660598      -0.47186093 </v>
   <v>       0.16660598      -0.33339402      -0.47186093 </v>
   <v>       0.41666666      -0.08333334      -0.47258061 </v>
   <v>      -0.08333334       0.41666666      -0.47258061 </v>
   <v>      -0.33339402      -0.08321199      -0.47186093 </v>
   <v>      -0.08321199      -0.33339402      -0.47186093 </v>
   <v>      -0.33339402       0.41678801      -0.47186093 </v>
   <v>       0.41678801      -0.33339402      -0.47186093 </v>
   <v>       0.41666666       0.41666666      -0.47258061 </v>
   <v>       0.16660598       0.41678801      -0.47186093 </v>
   <v>       0.41678801       0.16660598      -0.47186093 </v>
   <v>      -0.33339402      -0.33339402      -0.47186093 </v>
   <v>       0.08333333       0.08333333      -0.39746661 </v>
   <v>      -0.16565471       0.08130935      -0.39679536 </v>
   <v>       0.08130935      -0.16565471      -0.39679536 </v>
   <v>      -0.16565471      -0.16565471      -0.39679536 </v>
   <v>      -0.16565471       0.33434529      -0.39679536 </v>
   <v>       0.33434529      -0.16565471      -0.39679536 </v>
   <v>      -0.41666667       0.08333333      -0.39746661 </v>
   <v>       0.08333333      -0.41666667      -0.39746661 </v>
   <v>       0.08130935       0.33434529      -0.39679536 </v>
   <v>       0.33434529       0.08130935      -0.39679536 </v>
   <v>       0.33434529      -0.41869065      -0.39679536 </v>
   <v>      -0.41869065       0.33434529      -0.39679536 </v>
   <v>      -0.41666667      -0.41666667      -0.39746661 </v>
   <v>      -0.41869065      -0.16565471      -0.39679536 </v>
   <v>      -0.16565471      -0.41869065      -0.39679536 </v>
   <v>       0.33434529       0.33434529      -0.39679536 </v>
   <v>      -0.00285352      -0.00285352      -0.31942752 </v>
   <v>       0.25000000      -0.25000000      -0.32519129 </v>
   <v>      -0.25000000       0.25000000      -0.32519129 </v>
   <v>      -0.24429296      -0.00285352      -0.31942752 </v>
   <v>      -0.00285352      -0.24429296      -0.31942752 </v>
   <v>      -0.00285352       0.25570704      -0.31942752 </v>
   <v>       0.25570704      -0.00285352      -0.31942752 </v>
   <v>       0.25000000       0.25000000      -0.32519129 </v>
   <v>      -0.25000000      -0.25000000      -0.32519129 </v>
   <v>       0.49714648      -0.24429296      -0.31942752 </v>
   <v>      -0.24429296       0.49714648      -0.31942752 </v>
   <v>       0.25570704       0.49714648      -0.31942752 </v>
   <v>       0.49714648       0.25570704      -0.31942752 </v>
   <v>      -0.00285352       0.49714648      -0.31942752 </v>
   <v>       0.49714648      -0.00285352      -0.31942752 </v>
   <v>       0.49635262       0.49873419      -0.31891863 </v>
   <v>       0.08333333       0.08333333      -0.27956112 </v>
   <v>      -0.41666667       0.08333333      -0.27956112 </v>
   <v>       0.08333333      -0.41666667      -0.27956112 </v>
   <v>      -0.41666667      -0.41666667      -0.27956112 </v>
  </varray>
 </structure>
 <varray name="primitive_index" >
  <v type="int" >        1 </v>
  <v type="int" >       22 </v>
  <v type="int" >       27 </v>
  <v type="int" >        9 </v>
  <v type="int" >        6 </v>
  <v type="int" >       14 </v>
  <v type="int" >       15 </v>
  <v type="int" >        5 </v>
  <v type="int" >       11 </v>
  <v type="int" >       32 </v>
  <v type="int" >       17 </v>
  <v type="int" >       18 </v>
  <v type="int" >       19 </v>
  <v type="int" >       33 </v>
  <v type="int" >       38 </v>
  <v type="int" >       43 </v>
  <v type="int" >       30 </v>
  <v type="int" >       31 </v>
  <v type="int" >       23 </v>
  <v type="int" >       26 </v>
  <v type="int" >        7 </v>
  <v type="int" >       13 </v>
  <v type="int" >       10 </v>
  <v type="int" >       12 </v>
  <v type="int" >       16 </v>
  <v type="int" >        8 </v>
  <v type="int" >       28 </v>
  <v type="int" >       24 </v>
  <v type="int" >       46 </v>
  <v type="int" >       47 </v>
  <v type="int" >       48 </v>
  <v type="int" >        2 </v>
  <v type="int" >        4 </v>
  <v type="int" >        3 </v>
  <v type="int" >       35 </v>
  <v type="int" >       34 </v>
  <v type="int" >       42 </v>
  <v type="int" >       39 </v>
  <v type="int" >       41 </v>
  <v type="int" >       37 </v>
  <v type="int" >       21 </v>
  <v type="int" >       25 </v>
  <v type="int" >       29 </v>
  <v type="int" >       49 </v>
  <v type="int" >       20 </v>
  <v type="int" >       53 </v>
  <v type="int" >       57 </v>
  <v type="int" >       59 </v>
  <v type="int" >       54 </v>
  <v type="int" >       62 </v>
  <v type="int" >       63 </v>
  <v type="int" >       36 </v>
  <v type="int" >       40 </v>
  <v type="int" >       44 </v>
  <v type="int" >       45 </v>
  <v type="int" >       58 </v>
  <v type="int" >       55 </v>
  <v type="int" >       56 </v>
  <v type="int" >       60 </v>
  <v type="int" >       61 </v>
  <v type="int" >       64 </v>
  <v type="int" >       50 </v>
  <v type="int" >       51 </v>
  <v type="int" >       52 </v>
  <v type="int" >       80 </v>
  <v type="int" >       75 </v>
  <v type="int" >       70 </v>
  <v type="int" >       65 </v>
  <v type="int" >       67 </v>
  <v type="int" >       66 </v>
  <v type="int" >       78 </v>
  <v type="int" >       79 </v>
  <v type="int" >       72 </v>
  <v type="int" >       76 </v>
  <v type="int" >       71 </v>
  <v type="int" >       74 </v>
  <v type="int" >       77 </v>
  <v type="int" >       69 </v>
  <v type="int" >       73 </v>
  <v type="int" >       68 </v>
  <v type="int" >       81 </v>
  <v type="int" >       91 </v>
  <v type="int" >       86 </v>
  <v type="int" >       96 </v>
  <v type="int" >       95 </v>
  <v type="int" >       94 </v>
  <v type="int" >       83 </v>
  <v type="int" >       82 </v>
  <v type="int" >       85 </v>
  <v type="int" >       89 </v>
  <v type="int" >       90 </v>
  <v type="int" >       87 </v>
  <v type="int" >       84 </v>
  <v type="int" >       88 </v>
  <v type="int" >       92 </v>
  <v type="int" >       93 </v>
  <v type="int" >      100 </v>
  <v type="int" >      110 </v>
  <v type="int" >      111 </v>
  <v type="int" >      108 </v>
  <v type="int" >      104 </v>
  <v type="int" >      103 </v>
  <v type="int" >      106 </v>
  <v type="int" >      109 </v>
  <v type="int" >      112 </v>
  <v type="int" >      102 </v>
  <v type="int" >      107 </v>
  <v type="int" >      105 </v>
  <v type="int" >      101 </v>
  <v type="int" >       99 </v>
  <v type="int" >       98 </v>
  <v type="int" >       97 </v>
  <v type="int" >      113 </v>
  <v type="int" >      115 </v>
  <v type="int" >      114 </v>
  <v type="int" >      116 </v>
 </varray>
 <kpoints>
  <generation param="Gamma">
   <v type="int" name="divisions">       4        4        1 </v>
   <v name="usershift">      0.00000000       0.00000000       0.00000000 </v>
   <v name="genvec1">      0.25000000      -0.00000000       0.00000000 </v>
   <v name="genvec2">      0.00000000       0.25000000       0.00000000 </v>
   <v name="genvec3">      0.00000000       0.00000000       1.00000000 </v>
   <v name="shift">      0.00000000       0.00000000       0.00000000 </v>
  </generation>
  <varray name="kpointlist" >
   <v>       0.00000000       0.00000000       0.00000000 </v>
   <v>       0.25000000      -0.00000000       0.00000000 </v>
   <v>       0.50000000      -0.00000000       0.00000000 </v>
   <v>       0.00000000       0.25000000       0.00000000 </v>
   <v>       0.25000000       0.25000000       0.00000000 </v>
   <v>       0.50000000       0.25000000       0.00000000 </v>
   <v>      -0.25000000       0.25000000       0.00000000 </v>
   <v>       0.00000000       0.50000000       0.00000000 </v>
   <v>       0.25000000       0.50000000       0.00000000 </v>
   <v>       0.50000000       0.50000000       0.00000000 </v>
  </varray>
  <varray name="weights" >
   <v>       0.06250000 </v>
   <v>       0.12500000 </v>
   <v>       0.06250000 </v>
   <v>       0.12500000 </v>
   <v>       0.12500000 </v>
   <v>       0.12500000 </v>
   <v>       0.12500000 </v>
   <v>       0.06250000 </v>
   <v>       0.12500000 </v>
   <v>       0.06250000 </v>
  </varray>
 </kpoints>
 <parameters>
  <separator name="general" >
   <i type="string" name="SYSTEM">unknown system</i>
   <i type="logical" name="LCOMPAT"> F  </i>
  </separator>
  <separator name="electronic" >
   <i type="string" name="PREC">a</i>
   <i name="ENMAX">    500.00000000</i>
   <i name="ENAUG">    605.39200000</i>
   <i name="EDIFF">      0.00000100</i>
   <i type="int" name="IALGO">    38</i>
   <i type="int" name="IWAVPR">    10</i>
   <i type="int" name="NBANDS">   756</i>
   <i name="NELECT">   1256.00000000</i>
   <i type="int" name="TURBO">     0</i>
   <i type="int" name="IRESTART">     0</i>
   <i type="int" name="NREBOOT">     0</i>
   <i type="int" name="NMIN">     0</i>
   <i name="EREF">      0.00000000</i>
   <separator name="electronic smearing" >
    <i type="int" name="ISMEAR">     0</i>
    <i name="SIGMA">      0.05000000</i>
    <i name="KSPACING">      0.50000000</i>
    <i type="logical" name="KGAMMA"> T  </i>
   </separator>
   <separator name="electronic projectors" >
    <i type="logical" name="LREAL"> F  </i>
    <v name="ROPT">      0.00000000      0.00000000</v>
    <i type="int" name="LMAXPAW">  -100</i>
    <i type="int" name="LMAXMIX">     2</i>
    <i type="logical" name="NLSPLINE"> F  </i>
   </separator>
   <separator name="electronic startup" >
    <i type="int" name="ISTART">     0</i>
    <i type="int" name="ICHARG">     2</i>
    <i type="int" name="INIWAV">     1</i>
   </separator>
   <separator name="electronic spin" >
    <i type="int" name="ISPIN">     1</i>
    <i type="logical" name="LNONCOLLINEAR"> F  </i>
    <v name="MAGMOM">      1.00000000      1.00000000      1.00000000      1.00000000      1.00000000      1.00000000      1.00000000      1.00000000      1.00000000      1.00000000      1.00000000      1.00000000      1.00000000      1.00000000      1.00000000      1.00000000      1.00000000      1.00000000      1.00000000      1.00000000
      1.00000000      1.00000000      1.00000000      1.00000000      1.00000000      1.00000000      1.00000000      1.00000000      1.00000000      1.00000000      1.00000000      1.00000000      1.00000000      1.00000000      1.00000000      1.00000000      1.00000000      1.00000000      1.00000000      1.00000000
      1.00000000      1.00000000      1.00000000      1.00000000      1.00000000      1.00000000      1.00000000      1.00000000      1.00000000      1.00000000      1.00000000      1.00000000      1.00000000      1.00000000      1.00000000      1.00000000      1.00000000      1.00000000      1.00000000      1.00000000
      1.00000000      1.00000000      1.00000000      1.00000000      1.00000000      1.00000000      1.00000000      1.00000000      1.00000000      1.00000000      1.00000000      1.00000000      1.00000000      1.00000000      1.00000000      1.00000000      1.00000000      1.00000000      1.00000000      1.00000000
      1.00000000      1.00000000      1.00000000      1.00000000      1.00000000      1.00000000      1.00000000      1.00000000      1.00000000      1.00000000      1.00000000      1.00000000      1.00000000      1.00000000      1.00000000      1.00000000      1.00000000      1.00000000      1.00000000      1.00000000
      1.00000000      1.00000000      1.00000000      1.00000000      1.00000000      1.00000000      1.00000000      1.00000000      1.00000000      1.00000000      1.00000000      1.00000000      1.00000000      1.00000000      1.00000000      1.00000000</v>
    <i name="NUPDOWN">     -1.00000000</i>
    <i type="logical" name="LSORBIT"> F  </i>
    <v name="SAXIS">      0.00000000      0.00000000      1.00000000</v>
    <i type="logical" name="LSPIRAL"> F  </i>
    <v name="QSPIRAL">      0.00000000      0.00000000      0.00000000</v>
    <i type="logical" name="LZEROZ"> F  </i>
   </separator>
   <separator name="electronic exchange-correlation" >
    <i type="logical" name="LASPH"> F  </i>
    <i type="logical" name="LMETAGGA"> F  </i>
   </separator>
   <separator name="electronic convergence" >
    <i type="int" name="NELM">   300</i>
    <i type="int" name="NELMDL">    -5</i>
    <i type="int" name="NELMIN">     5</i>
    <i name="ENINI">    500.00000000</i>
    <separator name="electronic convergence detail" >
     <i type="logical" name="LDIAG"> T  </i>
     <i type="logical" name="LSUBROT"> F  </i>
     <i name="WEIMIN">      0.00000000</i>
     <i name="EBREAK">      0.00000000</i>
     <i name="DEPER">      0.30000000</i>
     <i type="int" name="NRMM">     4</i>
     <i name="TIME">      0.40000000</i>
    </separator>
   </separator>
   <separator name="electronic mixer" >
    <i name="AMIX">      0.40000000</i>
    <i name="BMIX">      1.00000000</i>
    <i name="AMIN">      0.10000000</i>
    <i name="AMIX_MAG">      1.60000000</i>
    <i name="BMIX_MAG">      1.00000000</i>
    <separator name="electronic mixer details" >
     <i type="int" name="IMIX">     4</i>
     <i type="logical" name="MIXFIRST"> F  </i>
     <i type="int" name="MAXMIX">   -45</i>
     <i name="WC">    100.00000000</i>
     <i type="int" name="INIMIX">     1</i>
     <i type="int" name="MIXPRE">     1</i>
     <i type="int" name="MREMOVE">     5</i>
    </separator>
   </separator>
   <separator name="electronic dipolcorrection" >
    <i type="logical" name="LDIPOL"> F  </i>
    <i type="logical" name="LMONO"> F  </i>
    <i type="int" name="IDIPOL">     0</i>
    <i name="EPSILON">      1.00000000</i>
    <v name="DIPOL">   -100.00000000   -100.00000000   -100.00000000</v>
    <i name="EFIELD">      0.00000000</i>
   </separator>
  </separator>
  <separator name="grids" >
   <i type="int" name="NGX">    80</i>
   <i type="int" name="NGY">    80</i>
   <i type="int" name="NGZ">   210</i>
   <i type="int" name="NGXF">   160</i>
   <i type="int" name="NGYF">   160</i>
   <i type="int" name="NGZF">   420</i>
   <i type="logical" name="ADDGRID"> T  </i>
  </separator>
  <separator name="ionic" >
   <i type="int" name="NSW">     0</i>
   <i type="int" name="IBRION">    -1</i>
   <i type="int" name="MDALGO">     0</i>
   <i type="int" name="ISIF">     2</i>
   <i name="PSTRESS">      0.00000000</i>
   <i name="EDIFFG">      0.00001000</i>
   <i type="int" name="NFREE">     0</i>
   <i name="POTIM">      0.50000000</i>
   <i name="SMASS">     -3.00000000</i>
   <i name="SCALEE">      1.00000000</i>
  </separator>
  <separator name="ionic md" >
   <i name="TEBEG">      0.00010000</i>
   <i name="TEEND">      0.00010000</i>
   <i type="int" name="NBLOCK">     1</i>
   <i type="int" name="KBLOCK">     1</i>
   <i type="int" name="NPACO">   256</i>
   <i name="APACO">     16.00000000</i>
  </separator>
  <separator name="symmetry" >
   <i type="int" name="ISYM">     2</i>
   <i name="SYMPREC">      0.00001000</i>
  </separator>
  <separator name="dos" >
   <i type="int" name="LORBIT">     0</i>
   <v name="RWIGS">     -1.00000000     -1.00000000</v>
   <i type="int" name="NEDOS">   301</i>
   <i name="EMIN">     10.00000000</i>
   <i name="EMAX">    -10.00000000</i>
   <i name="EFERMI">      0.00000000</i>
  </separator>
  <separator name="writing" >
   <i type="int" name="NWRITE">     2</i>
   <i type="logical" name="LWAVE"> F  </i>
   <i type="logical" name="LDOWNSAMPLE"> F  </i>
   <i type="logical" name="LCHARG"> F  </i>
   <i type="logical" name="LPARD"> F  </i>
   <i type="logical" name="LVTOT"> F  </i>
   <i type="logical" name="LVHAR"> F  </i>
   <i type="logical" name="LELF"> F  </i>
   <i type="logical" name="LOPTICS"> F  </i>
   <v name="STM">      0.00000000      0.00000000      0.00000000      0.00000000      0.00000000      0.00000000      0.00000000</v>
  </separator>
  <separator name="performance" >
   <i type="int" name="NPAR">     4</i>
   <i type="int" name="NSIM">     4</i>
   <i type="int" name="NBLK">    -1</i>
   <i type="logical" name="LPLANE"> T  </i>
   <i type="logical" name="LSCALAPACK"> F  </i>
   <i type="logical" name="LSCAAWARE"> F  </i>
   <i type="logical" name="LSCALU"> F  </i>
   <i type="logical" name="LASYNC"> F  </i>
   <i type="logical" name="LORBITALREAL"> F  </i>
  </separator>
  <separator name="miscellaneous" >
   <i type="int" name="IDIOT">     3</i>
   <i type="int" name="ISPECIAL">     0</i>
   <i type="logical" name="LMUSIC"> F  </i>
   <v name="POMASS">     63.54600000     16.00000000</v>
   <v name="DARWINR">      0.00000000      0.00000000</v>
   <v name="DARWINV">      1.00000000      1.00000000</v>
   <i type="logical" name="LCORR"> T  </i>
  </separator>
  <i type="logical" name="GGA_COMPAT"> T  </i>
  <i type="logical" name="LBERRY"> F  </i>
  <i type="int" name="ICORELEVEL">     0</i>
  <i type="logical" name="LDAU"> F  </i>
  <i type="int" name="I_CONSTRAINED_M">     0</i>
  <separator name="electronic exchange-correlation" >
   <i type="string" name="GGA">--</i>
   <i type="int" name="VOSKOWN">     0</i>
   <i type="logical" name="LHFCALC"> F  </i>
   <i type="string" name="PRECFOCK"></i>
   <i type="logical" name="LSYMGRAD"> F  </i>
   <i type="logical" name="LHFONE"> F  </i>
   <i type="logical" name="LRHFCALC"> F  </i>
   <i type="logical" name="LTHOMAS"> F  </i>
   <i type="logical" name="LMODELHF"> F  </i>
   <i name="ENCUT4O">     -1.00000000</i>
   <i type="int" name="EXXOEP">     0</i>
   <i type="int" name="FOURORBIT">     0</i>
   <i name="AEXX">      0.00000000</i>
   <i name="HFALPHA">      0.00000000</i>
   <i name="MCALPHA">      0.00000000</i>
   <i name="ALDAX">      1.00000000</i>
   <i name="AGGAX">      1.00000000</i>
   <i name="ALDAC">      1.00000000</i>
   <i name="AGGAC">      1.00000000</i>
   <i type="int" name="NKREDX">     1</i>
   <i type="int" name="NKREDY">     1</i>
   <i type="int" name="NKREDZ">     1</i>
   <i type="logical" name="SHIFTRED"> F  </i>
   <i type="logical" name="ODDONLY"> F  </i>
   <i type="logical" name="EVENONLY"> F  </i>
   <i type="int" name="LMAXFOCK">     0</i>
   <i type="int" name="NMAXFOCKAE">     0</i>
   <i type="logical" name="LFOCKAEDFT"> F  </i>
   <i name="HFSCREEN">      0.00000000</i>
   <i name="HFSCREENC">      0.00000000</i>
   <i type="int" name="NBANDSGWLOW">     0</i>
  </separator>
  <separator name="vdW DFT" >
   <i type="logical" name="LUSE_VDW"> F  </i>
   <i name="Zab_VDW">     -0.84910000</i>
   <i name="PARAM1">      0.12340000</i>
   <i name="PARAM2">      1.00000000</i>
   <i name="PARAM3">      0.00000000</i>
  </separator>
  <separator name="model GW" >
   <i type="int" name="MODEL_GW">     0</i>
   <i name="MODEL_EPS0">     13.16858037</i>
   <i name="MODEL_ALPHA">      1.00000000</i>
  </separator>
  <separator name="linear response parameters" >
   <i type="logical" name="LEPSILON"> F  </i>
   <i type="logical" name="LRPA"> F  </i>
   <i type="logical" name="LNABLA"> F  </i>
   <i type="logical" name="LVEL"> F  </i>
   <i type="int" name="KINTER">     0</i>
   <i name="CSHIFT">      0.10000000</i>
   <i name="OMEGAMAX">     -1.00000000</i>
   <i name="DEG_THRESHOLD">      0.00200000</i>
   <i name="RTIME">     -0.10000000</i>
   <i name="WPLASMAI">      0.00000000</i>
   <v name="DFIELD">      0.00000000      0.00000000      0.00000000</v>
   <v name="WPLASMA">      0.00000000      0.00000000      0.00000000      0.00000000      0.00000000      0.00000000      0.00000000      0.00000000      0.00000000</v>
  </separator>
  <separator name="orbital magnetization" >
   <i type="logical" name="NUCIND"> F  </i>
   <v name="MAGPOS">      0.00000000      0.00000000      0.00000000</v>
   <i type="logical" name="LNICSALL"> T  </i>
   <i type="logical" name="ORBITALMAG"> F  </i>
   <i type="logical" name="LMAGBLOCH"> F  </i>
   <i type="logical" name="LCHIMAG"> F  </i>
   <i type="logical" name="LGAUGE"> T  </i>
   <i type="int" name="MAGATOM">     0</i>
   <v name="MAGDIPOL">      0.00000000      0.00000000      0.00000000</v>
   <v name="AVECCONST">      0.00000000      0.00000000      0.00000000</v>
  </separator>
  <separator name="response functions" >
   <i type="logical" name="LADDER"> F  </i>
   <i type="logical" name="LRPAFORCE"> F  </i>
   <i type="logical" name="LFXC"> F  </i>
   <i type="logical" name="LHARTREE"> T  </i>
   <i type="int" name="IBSE">     0</i>
   <v type="int" name="KPOINT">    -1     0     0     0</v>
   <i type="logical" name="LTCTE"> F  </i>
   <i type="logical" name="LTETE"> F  </i>
   <i type="logical" name="LTRIPLET"> F  </i>
   <i type="logical" name="LFXCEPS"> F  </i>
   <i type="logical" name="LFXHEG"> F  </i>
   <i type="int" name="NATURALO">     2</i>
   <i type="logical" name="L2ORDER"> F  </i>
   <i type="logical" name="LMP2LT"> F  </i>
   <i type="logical" name="LUSEW"> F  </i>
   <i name="ENCUTGW">     -2.00000000</i>
   <i name="ENCUTGWSOFT">     -2.00000000</i>
   <i name="ENCUTLF">     -1.00000000</i>
   <i type="int" name="LMAXMP2">    -1</i>
   <i name="SCISSOR">      0.00000000</i>
   <i type="int" name="NOMEGA">     0</i>
   <i type="int" name="NOMEGAR">     0</i>
   <i type="int" name="NBANDSGW">    -1</i>
   <i type="int" name="NBANDSO">    -1</i>
   <i type="int" name="NBANDSV">    -1</i>
   <i type="int" name="NELM">   300</i>
   <i type="int" name="NELMHF">     1</i>
   <i type="int" name="DIM">     3</i>
   <i type="int" name="ANTIRES">     0</i>
   <i name="OMEGAMAX">    -30.00000000</i>
   <i name="OMEGAMIN">    -30.00000000</i>
   <i name="OMEGATL">   -200.00000000</i>
   <i type="int" name="OMEGAGRID">   140</i>
   <i name="CSHIFT">     -0.10000000</i>
   <i type="logical" name="SELFENERGY"> F  </i>
   <i type="logical" name="LSPECTRAL"> F  </i>
   <i type="logical" name="LSPECTRALGW"> F  </i>
   <i type="logical" name="LSINGLES"> F  </i>
   <i type="logical" name="LFERMIGW"> F  </i>
   <i type="logical" name="ODDONLYGW"> F  </i>
   <i type="logical" name="EVENONLYGW"> F  </i>
   <i type="int" name="NKREDLFX">     1</i>
   <i type="int" name="NKREDLFY">     1</i>
   <i type="int" name="NKREDLFZ">     1</i>
   <i type="int" name="MAXMEM">  2800</i>
   <i type="int" name="TELESCOPE">     0</i>
   <i type="int" name="TAUPAR">     1</i>
   <i type="int" name="OMEGAPAR">    -1</i>
   <i name="LAMBDA">      1.00000000</i>
  </separator>
  <separator name="External order field" >
   <i name="OFIELD_KAPPA">      0.00000000</i>
   <v name="OFIELD_K">      0.00000000      0.00000000      0.00000000</v>
   <i name="OFIELD_Q6_NEAR">      0.00000000</i>
   <i name="OFIELD_Q6_FAR">      0.00000000</i>
   <i name="OFIELD_A">      0.00000000</i>
  </separator>
 </parameters>
 <atominfo>
  <atoms>     116 </atoms>
  <types>       2 </types>
  <array name="atoms" >
   <dimension dim="1">ion</dimension>
   <field type="string">element</field>
   <field type="int">atomtype</field>
   <set>
    <rc><c>Cu</c><c>   1</c></rc>
    <rc><c>Cu</c><c>   1</c></rc>
    <rc><c>Cu</c><c>   1</c></rc>
    <rc><c>Cu</c><c>   1</c></rc>
    <rc><c>Cu</c><c>   1</c></rc>
    <rc><c>Cu</c><c>   1</c></rc>
    <rc><c>Cu</c><c>   1</c></rc>
    <rc><c>Cu</c><c>   1</c></rc>
    <rc><c>Cu</c><c>   1</c></rc>
    <rc><c>Cu</c><c>   1</c></rc>
    <rc><c>Cu</c><c>   1</c></rc>
    <rc><c>Cu</c><c>   1</c></rc>
    <rc><c>Cu</c><c>   1</c></rc>
    <rc><c>Cu</c><c>   1</c></rc>
    <rc><c>Cu</c><c>   1</c></rc>
    <rc><c>Cu</c><c>   1</c></rc>
    <rc><c>Cu</c><c>   1</c></rc>
    <rc><c>Cu</c><c>   1</c></rc>
    <rc><c>Cu</c><c>   1</c></rc>
    <rc><c>Cu</c><c>   1</c></rc>
    <rc><c>Cu</c><c>   1</c></rc>
    <rc><c>Cu</c><c>   1</c></rc>
    <rc><c>Cu</c><c>   1</c></rc>
    <rc><c>Cu</c><c>   1</c></rc>
    <rc><c>Cu</c><c>   1</c></rc>
    <rc><c>Cu</c><c>   1</c></rc>
    <rc><c>Cu</c><c>   1</c></rc>
    <rc><c>Cu</c><c>   1</c></rc>
    <rc><c>Cu</c><c>   1</c></rc>
    <rc><c>Cu</c><c>   1</c></rc>
    <rc><c>Cu</c><c>   1</c></rc>
    <rc><c>Cu</c><c>   1</c></rc>
    <rc><c>Cu</c><c>   1</c></rc>
    <rc><c>Cu</c><c>   1</c></rc>
    <rc><c>Cu</c><c>   1</c></rc>
    <rc><c>Cu</c><c>   1</c></rc>
    <rc><c>Cu</c><c>   1</c></rc>
    <rc><c>Cu</c><c>   1</c></rc>
    <rc><c>Cu</c><c>   1</c></rc>
    <rc><c>Cu</c><c>   1</c></rc>
    <rc><c>Cu</c><c>   1</c></rc>
    <rc><c>Cu</c><c>   1</c></rc>
    <rc><c>Cu</c><c>   1</c></rc>
    <rc><c>Cu</c><c>   1</c></rc>
    <rc><c>Cu</c><c>   1</c></rc>
    <rc><c>Cu</c><c>   1</c></rc>
    <rc><c>Cu</c><c>   1</c></rc>
    <rc><c>Cu</c><c>   1</c></rc>
    <rc><c>Cu</c><c>   1</c></rc>
    <rc><c>Cu</c><c>   1</c></rc>
    <rc><c>Cu</c><c>   1</c></rc>
    <rc><c>Cu</c><c>   1</c></rc>
    <rc><c>Cu</c><c>   1</c></rc>
    <rc><c>Cu</c><c>   1</c></rc>
    <rc><c>Cu</c><c>   1</c></rc>
    <rc><c>Cu</c><c>   1</c></rc>
    <rc><c>Cu</c><c>   1</c></rc>
    <rc><c>Cu</c><c>   1</c></rc>
    <rc><c>Cu</c><c>   1</c></rc>
    <rc><c>Cu</c><c>   1</c></rc>
    <rc><c>Cu</c><c>   1</c></rc>
    <rc><c>Cu</c><c>   1</c></rc>
    <rc><c>Cu</c><c>   1</c></rc>
    <rc><c>Cu</c><c>   1</c></rc>
    <rc><c>Cu</c><c>   1</c></rc>
    <rc><c>Cu</c><c>   1</c></rc>
    <rc><c>Cu</c><c>   1</c></rc>
    <rc><c>Cu</c><c>   1</c></rc>
    <rc><c>Cu</c><c>   1</c></rc>
    <rc><c>Cu</c><c>   1</c></rc>
    <rc><c>Cu</c><c>   1</c></rc>
    <rc><c>Cu</c><c>   1</c></rc>
    <rc><c>Cu</c><c>   1</c></rc>
    <rc><c>Cu</c><c>   1</c></rc>
    <rc><c>Cu</c><c>   1</c></rc>
    <rc><c>Cu</c><c>   1</c></rc>
    <rc><c>Cu</c><c>   1</c></rc>
    <rc><c>Cu</c><c>   1</c></rc>
    <rc><c>Cu</c><c>   1</c></rc>
    <rc><c>Cu</c><c>   1</c></rc>
    <rc><c>Cu</c><c>   1</c></rc>
    <rc><c>Cu</c><c>   1</c></rc>
    <rc><c>Cu</c><c>   1</c></rc>
    <rc><c>Cu</c><c>   1</c></rc>
    <rc><c>Cu</c><c>   1</c></rc>
    <rc><c>Cu</c><c>   1</c></rc>
    <rc><c>Cu</c><c>   1</c></rc>
    <rc><c>Cu</c><c>   1</c></rc>
    <rc><c>Cu</c><c>   1</c></rc>
    <rc><c>Cu</c><c>   1</c></rc>
    <rc><c>Cu</c><c>   1</c></rc>
    <rc><c>Cu</c><c>   1</c></rc>
    <rc><c>Cu</c><c>   1</c></rc>
    <rc><c>Cu</c><c>   1</c></rc>
    <rc><c>Cu</c><c>   1</c></rc>
    <rc><c>Cu</c><c>   1</c></rc>
    <rc><c>Cu</c><c>   1</c></rc>
    <rc><c>Cu</c><c>   1</c></rc>
    <rc><c>Cu</c><c>   1</c></rc>
    <rc><c>Cu</c><c>   1</c></rc>
    <rc><c>Cu</c><c>   1</c></rc>
    <rc><c>Cu</c><c>   1</c></rc>
    <rc><c>Cu</c><c>   1</c></rc>
    <rc><c>Cu</c><c>   1</c></rc>
    <rc><c>Cu</c><c>   1</c></rc>
    <rc><c>Cu</c><c>   1</c></rc>
    <rc><c>Cu</c><c>   1</c></rc>
    <rc><c>Cu</c><c>   1</c></rc>
    <rc><c>Cu</c><c>   1</c></rc>
    <rc><c>Cu</c><c>   1</c></rc>
    <rc><c>Cu</c><c>   1</c></rc>
    <rc><c>Cu</c><c>   1</c></rc>
    <rc><c>O </c><c>   2</c></rc>
    <rc><c>O </c><c>   2</c></rc>
    <rc><c>O </c><c>   2</c></rc>
    <rc><c>O </c><c>   2</c></rc>
   </set>
  </array>
  <array name="atomtypes" >
   <dimension dim="1">type</dimension>
   <field type="int">atomspertype</field>
   <field type="string">element</field>
   <field>mass</field>
   <field>valence</field>
   <field type="string">pseudopotential</field>
   <set>
    <rc><c> 112</c><c>Cu</c><c>     63.54600000</c><c>     11.00000000</c><c> PAW_PBE Cu 05Jan2001                   </c></rc>
    <rc><c>   4</c><c>O </c><c>     16.00000000</c><c>      6.00000000</c><c> PAW_PBE O 08Apr2002                    </c></rc>
   </set>
  </array>
 </atominfo>
 <structure name="initialpos" >
  <crystal>
   <varray name="basis" >
    <v>      10.28518105       0.00000000       0.00000000 </v>
    <v>       5.14259052       8.90722807       0.00000000 </v>
    <v>       0.00000000       0.00000000      27.79016876 </v>
   </varray>
   <i name="volume">   2545.92553775 </i>
   <varray name="rec_basis" >
    <v>       0.09722726      -0.05613419       0.00000000 </v>
    <v>       0.00000000       0.11226837       0.00000000 </v>
    <v>       0.00000000       0.00000000       0.03598395 </v>
   </varray>
  </crystal>
  <varray name="positions" >
   <v>       0.00000000       0.00000000       0.22663990 </v>
   <v>       0.00000000       0.50000000       0.22663990 </v>
   <v>       0.50000000       0.00000000       0.22663990 </v>
   <v>       0.50000000       0.50000000       0.22663990 </v>
   <v>       0.00000000       0.25000000       0.22663990 </v>
   <v>       0.00000000       0.75000000       0.22663990 </v>
   <v>       0.50000000       0.25000000       0.22663990 </v>
   <v>       0.50000000       0.75000000       0.22663990 </v>
   <v>       0.25000000       0.00000000       0.22663990 </v>
   <v>       0.25000000       0.50000000       0.22663990 </v>
   <v>       0.75000000       0.00000000       0.22663990 </v>
   <v>       0.75000000       0.50000000       0.22663990 </v>
   <v>       0.25000000       0.25000000       0.22663990 </v>
   <v>       0.25000000       0.75000000       0.22663990 </v>
   <v>       0.75000000       0.25000000       0.22663990 </v>
   <v>       0.75000000       0.75000000       0.22663990 </v>
   <v>       0.16666666       0.16666666       0.30218653 </v>
   <v>       0.16666666       0.66666666       0.30218653 </v>
   <v>       0.66666666       0.16666666       0.30218653 </v>
   <v>       0.66666666       0.66666666       0.30218653 </v>
   <v>       0.16666666       0.41666666       0.30218653 </v>
   <v>       0.16666666       0.91666666       0.30218653 </v>
   <v>       0.66666666       0.41666666       0.30218653 </v>
   <v>       0.66666666       0.91666666       0.30218653 </v>
   <v>       0.41666666       0.16666666       0.30218653 </v>
   <v>       0.41666666       0.66666666       0.30218653 </v>
   <v>       0.91666666       0.16666666       0.30218653 </v>
   <v>       0.91666666       0.66666666       0.30218653 </v>
   <v>       0.41666666       0.41666666       0.30218653 </v>
   <v>       0.41666666       0.91666666       0.30218653 </v>
   <v>       0.91666666       0.41666666       0.30218653 </v>
   <v>       0.91666666       0.91666666       0.30218653 </v>
   <v>       0.08333333       0.08333333       0.37716320 </v>
   <v>       0.08333333       0.58333333       0.37716320 </v>
   <v>       0.58333333       0.08333333       0.37716320 </v>
   <v>       0.58333333       0.58333333       0.37716320 </v>
   <v>       0.08351614       0.33324190       0.37729758 </v>
   <v>       0.08351614       0.83324190       0.37729758 </v>
   <v>       0.58351614       0.33324190       0.37729758 </v>
   <v>       0.58351614       0.83324190       0.37729758 </v>
   <v>       0.33324190       0.08351614       0.37729758 </v>
   <v>       0.33324190       0.58351614       0.37729758 </v>
   <v>       0.83324190       0.08351614       0.37729758 </v>
   <v>       0.83324190       0.58351614       0.37729758 </v>
   <v>       0.33324190       0.33324190       0.37729758 </v>
   <v>       0.33324190       0.83324190       0.37729758 </v>
   <v>       0.83324190       0.33324190       0.37729758 </v>
   <v>       0.83324190       0.83324190       0.37729758 </v>
   <v>       0.00012997       0.00012997       0.45242342 </v>
   <v>       0.00012997       0.50012997       0.45242342 </v>
   <v>       0.50012997       0.00012997       0.45242342 </v>
   <v>       0.50012997       0.50012997       0.45242342 </v>
   <v>       0.00012997       0.24974005       0.45242342 </v>
   <v>       0.00012997       0.74974005       0.45242342 </v>
   <v>       0.50012997       0.24974005       0.45242342 </v>
   <v>       0.50012997       0.74974005       0.45242342 </v>
   <v>       0.24974005       0.00012997       0.45242342 </v>
   <v>       0.24974005       0.50012997       0.45242342 </v>
   <v>       0.74974005       0.00012997       0.45242342 </v>
   <v>       0.74974005       0.50012997       0.45242342 </v>
   <v>       0.25000000       0.25000000       0.45288750 </v>
   <v>       0.25000000       0.75000000       0.45288750 </v>
   <v>       0.75000000       0.25000000       0.45288750 </v>
   <v>       0.75000000       0.75000000       0.45288750 </v>
   <v>       0.16660598       0.16660598       0.52813907 </v>
   <v>       0.16660598       0.66660598       0.52813907 </v>
   <v>       0.66660598       0.16660598       0.52813907 </v>
   <v>       0.66660598       0.66660598       0.52813907 </v>
   <v>       0.16660598       0.41678801       0.52813907 </v>
   <v>       0.16660598       0.91678801       0.52813907 </v>
   <v>       0.66660598       0.41678801       0.52813907 </v>
   <v>       0.66660598       0.91678801       0.52813907 </v>
   <v>       0.41678801       0.16660598       0.52813907 </v>
   <v>       0.41678801       0.66660598       0.52813907 </v>
   <v>       0.91678801       0.16660598       0.52813907 </v>
   <v>       0.91678801       0.66660598       0.52813907 </v>
   <v>       0.41666666       0.41666666       0.52741939 </v>
   <v>       0.41666666       0.91666666       0.52741939 </v>
   <v>       0.91666666       0.41666666       0.52741939 </v>
   <v>       0.91666666       0.91666666       0.52741939 </v>
   <v>       0.08333333       0.08333333       0.60253339 </v>
   <v>       0.08333333       0.58333333       0.60253339 </v>
   <v>       0.58333333       0.08333333       0.60253339 </v>
   <v>       0.58333333       0.58333333       0.60253339 </v>
   <v>       0.08130935       0.33434529       0.60320464 </v>
   <v>       0.08130935       0.83434529       0.60320464 </v>
   <v>       0.58130935       0.33434529       0.60320464 </v>
   <v>       0.58130935       0.83434529       0.60320464 </v>
   <v>       0.33434529       0.08130935       0.60320464 </v>
   <v>       0.33434529       0.58130935       0.60320464 </v>
   <v>       0.83434529       0.08130935       0.60320464 </v>
   <v>       0.83434529       0.58130935       0.60320464 </v>
   <v>       0.33434529       0.33434529       0.60320464 </v>
   <v>       0.33434529       0.83434529       0.60320464 </v>
   <v>       0.83434529       0.33434529       0.60320464 </v>
   <v>       0.83434529       0.83434529       0.60320464 </v>
   <v>       0.49635262       0.49873419       0.68108137 </v>
   <v>       0.49714648       0.99714648       0.68057248 </v>
   <v>       0.99714648       0.49714648       0.68057248 </v>
   <v>       0.99714648       0.99714648       0.68057248 </v>
   <v>       0.49714648       0.25570704       0.68057248 </v>
   <v>       0.49714648       0.75570704       0.68057248 </v>
   <v>       0.99714648       0.25570704       0.68057248 </v>
   <v>       0.99714648       0.75570704       0.68057248 </v>
   <v>       0.25570704       0.49714648       0.68057248 </v>
   <v>       0.25570704       0.99714648       0.68057248 </v>
   <v>       0.75570704       0.49714648       0.68057248 </v>
   <v>       0.75570704       0.99714648       0.68057248 </v>
   <v>       0.25000000       0.25000000       0.67480871 </v>
   <v>       0.25000000       0.75000000       0.67480871 </v>
   <v>       0.75000000       0.25000000       0.67480871 </v>
   <v>       0.75000000       0.75000000       0.67480871 </v>
   <v>       0.08333333       0.08333333       0.72043888 </v>
   <v>       0.08333333       0.58333333       0.72043888 </v>
   <v>       0.58333333       0.08333333       0.72043888 </v>
   <v>       0.58333333       0.58333333       0.72043888 </v>
  </varray>
 </structure>
 <calculation>
  <scstep>
   <time name="dav">  204.27  205.55</time>
   <time name="total">  204.85  206.15</time>
   <energy>
    <i name="alphaZ">   6463.29446255 </i>
    <i name="ewald"> 664510.94084050 </i>
    <i name="hartreedc">-815265.88334287 </i>
    <i name="XCdc">   5009.43304887 </i>
    <i name="pawpsdc"> 122173.85035501 </i>
    <i name="pawaedc">-138312.01710912 </i>
    <i name="eentropy">     -0.03012007 </i>
    <i name="bandstr">   8852.83329989 </i>
    <i name="atom"> 157518.83071590 </i>
    <i name="e_fr_energy">  10951.25215067 </i>
    <i name="e_wo_entrp">  10951.28227073 </i>
    <i name="e_0_energy">  10951.26721070 </i>
   </energy>
  </scstep>
  <scstep>
   <time name="dav">  162.67  162.96</time>
   <time name="total">  162.70  162.99</time>
   <energy>
    <i name="e_fr_energy">   1074.21989976 </i>
    <i name="e_wo_entrp">   1074.26485229 </i>
    <i name="e_0_energy">   1074.24237602 </i>
   </energy>
  </scstep>
  <scstep>
   <time name="dav">  170.89  171.14</time>
   <time name="total">  170.92  171.16</time>
   <energy>
    <i name="e_fr_energy">   -373.60544849 </i>
    <i name="e_wo_entrp">   -373.53974452 </i>
    <i name="e_0_energy">   -373.57259650 </i>
   </energy>
  </scstep>
  <scstep>
   <time name="dav">  178.64  178.86</time>
   <time name="total">  178.66  178.89</time>
   <energy>
    <i name="e_fr_energy">   -524.81822535 </i>
    <i name="e_wo_entrp">   -524.75489324 </i>
    <i name="e_0_energy">   -524.78655930 </i>
   </energy>
  </scstep>
  <scstep>
   <time name="dav">  173.58  173.80</time>
   <time name="total">  178.99  179.21</time>
   <energy>
    <i name="e_fr_energy">   -530.85751630 </i>
    <i name="e_wo_entrp">   -530.79423852 </i>
    <i name="e_0_energy">   -530.82587741 </i>
   </energy>
  </scstep>
  <scstep>
   <time name="dav">  172.50  172.71</time>
   <time name="total">  178.08  178.31</time>
   <energy>
    <i name="e_fr_energy">   -477.95427257 </i>
    <i name="e_wo_entrp">   -477.89812752 </i>
    <i name="e_0_energy">   -477.92620004 </i>
   </energy>
  </scstep>
  <scstep>
   <time name="dav">  181.60  181.84</time>
   <time name="total">  188.91  189.21</time>
   <energy>
    <i name="e_fr_energy">   -509.71000270 </i>
    <i name="e_wo_entrp">   -509.59463537 </i>
    <i name="e_0_energy">   -509.65231903 </i>
   </energy>
  </scstep>
  <scstep>
   <time name="dav">  198.18  198.48</time>
   <time name="total">  203.61  203.98</time>
   <energy>
    <i name="e_fr_energy">   -444.41178896 </i>
    <i name="e_wo_entrp">   -444.32886143 </i>
    <i name="e_0_energy">   -444.37032519 </i>
   </energy>
  </scstep>
  <scstep>
   <time name="dav">  200.00  200.28</time>
   <time name="total">  205.02  205.33</time>
   <energy>
    <i name="e_fr_energy">   -428.43778891 </i>
    <i name="e_wo_entrp">   -428.39823732 </i>
    <i name="e_0_energy">   -428.41801311 </i>
   </energy>
  </scstep>
  <scstep>
   <time name="dav">  175.62  176.04</time>
   <time name="total">  180.61  181.07</time>
   <energy>
    <i name="e_fr_energy">   -429.26262413 </i>
    <i name="e_wo_entrp">   -429.20912180 </i>
    <i name="e_0_energy">   -429.23587297 </i>
   </energy>
  </scstep>
  <scstep>
   <time name="dav">  175.11  175.36</time>
   <time name="total">  180.12  180.41</time>
   <energy>
    <i name="e_fr_energy">   -427.91168924 </i>
    <i name="e_wo_entrp">   -427.84489600 </i>
    <i name="e_0_energy">   -427.87829262 </i>
   </energy>
  </scstep>
  <scstep>
   <time name="dav">  189.23  189.49</time>
   <time name="total">  210.78  244.85</time>
   <energy>
    <i name="e_fr_energy">   -427.70242287 </i>
    <i name="e_wo_entrp">   -427.64767179 </i>
    <i name="e_0_energy">   -427.67504733 </i>
   </energy>
  </scstep>
  <scstep>
   <time name="dav">  167.07  167.32</time>
   <time name="total">  174.03  174.28</time>
   <energy>
    <i name="e_fr_energy">   -427.64522542 </i>
    <i name="e_wo_entrp">   -427.59063302 </i>
    <i name="e_0_energy">   -427.61792922 </i>
   </energy>
  </scstep>
  <scstep>
   <time name="dav">  169.87  170.08</time>
   <time name="total">  174.87  175.09</time>
   <energy>
    <i name="e_fr_energy">   -427.54106719 </i>
    <i name="e_wo_entrp">   -427.49186000 </i>
    <i name="e_0_energy">   -427.51646359 </i>
   </energy>
  </scstep>
  <scstep>
   <time name="dav">  170.54  170.77</time>
   <time name="total">  178.20  178.43</time>
   <energy>
    <i name="e_fr_energy">   -427.60800024 </i>
    <i name="e_wo_entrp">   -427.55943893 </i>
    <i name="e_0_energy">   -427.58371958 </i>
   </energy>
  </scstep>
  <scstep>
   <time name="dav">  171.90  172.11</time>
   <time name="total">  177.14  177.37</time>
   <energy>
    <i name="e_fr_energy">   -427.51066409 </i>
    <i name="e_wo_entrp">   -427.46102075 </i>
    <i name="e_0_energy">   -427.48584242 </i>
   </energy>
  </scstep>
  <scstep>
   <time name="dav">  176.10  176.32</time>
   <time name="total">  181.10  181.33</time>
   <energy>
    <i name="e_fr_energy">   -427.47800568 </i>
    <i name="e_wo_entrp">   -427.42681043 </i>
    <i name="e_0_energy">   -427.45240805 </i>
   </energy>
  </scstep>
  <scstep>
   <time name="dav">  196.80  197.11</time>
   <time name="total">  202.61  202.93</time>
   <energy>
    <i name="e_fr_energy">   -427.46476370 </i>
    <i name="e_wo_entrp">   -427.41227429 </i>
    <i name="e_0_energy">   -427.43851900 </i>
   </energy>
  </scstep>
  <scstep>
   <time name="dav">  176.62  176.84</time>
   <time name="total">  181.60  181.82</time>
   <energy>
    <i name="e_fr_energy">   -427.46468862 </i>
    <i name="e_wo_entrp">   -427.41164513 </i>
    <i name="e_0_energy">   -427.43816687 </i>
   </energy>
  </scstep>
  <scstep>
   <time name="dav">  158.48  158.68</time>
   <time name="total">  163.48  163.69</time>
   <energy>
    <i name="e_fr_energy">   -427.46521554 </i>
    <i name="e_wo_entrp">   -427.41203586 </i>
    <i name="e_0_energy">   -427.43862570 </i>
   </energy>
  </scstep>
  <scstep>
   <time name="dav">  157.55  157.76</time>
   <time name="total">  162.54  162.76</time>
   <energy>
    <i name="e_fr_energy">   -427.46537161 </i>
    <i name="e_wo_entrp">   -427.41193558 </i>
    <i name="e_0_energy">   -427.43865360 </i>
   </energy>
  </scstep>
  <scstep>
   <time name="dav">  161.53  161.74</time>
   <time name="total">  166.52  166.74</time>
   <energy>
    <i name="e_fr_energy">   -427.46566239 </i>
    <i name="e_wo_entrp">   -427.41234377 </i>
    <i name="e_0_energy">   -427.43900308 </i>
   </energy>
  </scstep>
  <scstep>
   <time name="dav">  159.54  159.79</time>
   <time name="total">  164.55  164.80</time>
   <energy>
    <i name="e_fr_energy">   -427.46563810 </i>
    <i name="e_wo_entrp">   -427.41243465 </i>
    <i name="e_0_energy">   -427.43903638 </i>
   </energy>
  </scstep>
  <scstep>
   <time name="dav">  156.72  156.92</time>
   <time name="total">  161.72  161.92</time>
   <energy>
    <i name="e_fr_energy">   -427.46579646 </i>
    <i name="e_wo_entrp">   -427.41256813 </i>
    <i name="e_0_energy">   -427.43918230 </i>
   </energy>
  </scstep>
  <scstep>
   <time name="dav">  174.60  174.83</time>
   <time name="total">  181.79  182.02</time>
   <energy>
    <i name="e_fr_energy">   -427.46597929 </i>
    <i name="e_wo_entrp">   -427.41279094 </i>
    <i name="e_0_energy">   -427.43938512 </i>
   </energy>
  </scstep>
  <scstep>
   <time name="dav">  180.55  180.79</time>
   <time name="total">  185.53  185.79</time>
   <energy>
    <i name="e_fr_energy">   -427.46621135 </i>
    <i name="e_wo_entrp">   -427.41301745 </i>
    <i name="e_0_energy">   -427.43961440 </i>
   </energy>
  </scstep>
  <scstep>
   <time name="dav">  212.19  212.44</time>
   <time name="total">  217.17  217.43</time>
   <energy>
    <i name="e_fr_energy">   -427.46639063 </i>
    <i name="e_wo_entrp">   -427.41319154 </i>
    <i name="e_0_energy">   -427.43979109 </i>
   </energy>
  </scstep>
  <scstep>
   <time name="dav">  161.31  161.52</time>
   <time name="total">  166.32  166.54</time>
   <energy>
    <i name="e_fr_energy">   -427.46657529 </i>
    <i name="e_wo_entrp">   -427.41339184 </i>
    <i name="e_0_energy">   -427.43998357 </i>
   </energy>
  </scstep>
  <scstep>
   <time name="dav">  159.59  159.81</time>
   <time name="total">  164.70  164.92</time>
   <energy>
    <i name="e_fr_energy">   -427.46672481 </i>
    <i name="e_wo_entrp">   -427.41355790 </i>
    <i name="e_0_energy">   -427.44014136 </i>
   </energy>
  </scstep>
  <scstep>
   <time name="dav">  157.58  157.78</time>
   <time name="total">  162.74  162.95</time>
   <energy>
    <i name="e_fr_energy">   -427.46683160 </i>
    <i name="e_wo_entrp">   -427.41366770 </i>
    <i name="e_0_energy">   -427.44024965 </i>
   </energy>
  </scstep>
  <scstep>
   <time name="dav">  147.18  147.37</time>
   <time name="total">  152.18  152.37</time>
   <energy>
    <i name="e_fr_energy">   -427.46693933 </i>
    <i name="e_wo_entrp">   -427.41376800 </i>
    <i name="e_0_energy">   -427.44035366 </i>
   </energy>
  </scstep>
  <scstep>
   <time name="dav">  148.78  149.16</time>
   <time name="total">  153.76  154.15</time>
   <energy>
    <i name="e_fr_energy">   -427.46700410 </i>
    <i name="e_wo_entrp">   -427.41381785 </i>
    <i name="e_0_energy">   -427.44041098 </i>
   </energy>
  </scstep>
  <scstep>
   <time name="dav">  126.41  126.57</time>
   <time name="total">  131.43  131.60</time>
   <energy>
    <i name="e_fr_energy">   -427.46704105 </i>
    <i name="e_wo_entrp">   -427.41385061 </i>
    <i name="e_0_energy">   -427.44044583 </i>
   </energy>
  </scstep>
  <scstep>
   <time name="dav">  121.56  121.71</time>
   <time name="total">  126.69  126.86</time>
   <energy>
    <i name="e_fr_energy">   -427.46706281 </i>
    <i name="e_wo_entrp">   -427.41387674 </i>
    <i name="e_0_energy">   -427.44046977 </i>
   </energy>
  </scstep>
  <scstep>
   <time name="dav">  122.20  122.35</time>
   <time name="total">  127.22  127.38</time>
   <energy>
    <i name="e_fr_energy">   -427.46708226 </i>
    <i name="e_wo_entrp">   -427.41390023 </i>
    <i name="e_0_energy">   -427.44049125 </i>
   </energy>
  </scstep>
  <scstep>
   <time name="dav">  120.21  120.43</time>
   <time name="total">  125.47  125.70</time>
   <energy>
    <i name="e_fr_energy">   -427.46709228 </i>
    <i name="e_wo_entrp">   -427.41391343 </i>
    <i name="e_0_energy">   -427.44050285 </i>
   </energy>
  </scstep>
  <scstep>
   <time name="dav">  120.17  120.31</time>
   <time name="total">  126.52  126.67</time>
   <energy>
    <i name="e_fr_energy">   -427.46709996 </i>
    <i name="e_wo_entrp">   -427.41392119 </i>
    <i name="e_0_energy">   -427.44051057 </i>
   </energy>
  </scstep>
  <scstep>
   <time name="dav">  116.83  116.97</time>
   <time name="total">  121.85  122.00</time>
   <energy>
    <i name="e_fr_energy">   -427.46710272 </i>
    <i name="e_wo_entrp">   -427.41392291 </i>
    <i name="e_0_energy">   -427.44051281 </i>
   </energy>
  </scstep>
  <scstep>
   <time name="dav">  114.63  114.78</time>
   <time name="total">  119.62  119.78</time>
   <energy>
    <i name="e_fr_energy">   -427.46710493 </i>
    <i name="e_wo_entrp">   -427.41392372 </i>
    <i name="e_0_energy">   -427.44051432 </i>
   </energy>
  </scstep>
  <scstep>
   <time name="dav">  111.68  111.83</time>
   <time name="total">  112.17  112.33</time>
   <energy>
    <i name="alphaZ">   6463.29446255 </i>
    <i name="ewald"> 664510.94084050 </i>
    <i name="hartreedc">-813302.71429208 </i>
    <i name="XCdc">   4896.83362179 </i>
    <i name="pawpsdc"> 123760.30560485 </i>
    <i name="pawaedc">-139977.38219580 </i>
    <i name="eentropy">     -0.05318121 </i>
    <i name="bandstr">  -4297.52268235 </i>
    <i name="atom"> 157518.83071590 </i>
    <i name="e_fr_energy">   -427.46710584 </i>
    <i name="e_wo_entrp">   -427.41392464 </i>
    <i name="e_0_energy">   -427.44051524 </i>
   </energy>
  </scstep>
  <structure>
   <crystal>
    <varray name="basis" >
     <v>      10.28518105       0.00000000       0.00000000 </v>
     <v>       5.14259052       8.90722807       0.00000000 </v>
     <v>       0.00000000       0.00000000      27.79016876 </v>
    </varray>
    <i name="volume">   2545.92553775 </i>
    <varray name="rec_basis" >
     <v>       0.09722726      -0.05613419       0.00000000 </v>
     <v>       0.00000000       0.11226837       0.00000000 </v>
     <v>       0.00000000       0.00000000       0.03598395 </v>
    </varray>
   </crystal>
   <varray name="positions" >
    <v>       0.00000000       0.00000000       0.22663990 </v>
    <v>       0.00000000       0.50000000       0.22663990 </v>
    <v>       0.50000000       0.00000000       0.22663990 </v>
    <v>       0.50000000       0.50000000       0.22663990 </v>
    <v>       0.00000000       0.25000000       0.22663990 </v>
    <v>       0.00000000       0.75000000       0.22663990 </v>
    <v>       0.50000000       0.25000000       0.22663990 </v>
    <v>       0.50000000       0.75000000       0.22663990 </v>
    <v>       0.25000000       0.00000000       0.22663990 </v>
    <v>       0.25000000       0.50000000       0.22663990 </v>
    <v>       0.75000000       0.00000000       0.22663990 </v>
    <v>       0.75000000       0.50000000       0.22663990 </v>
    <v>       0.25000000       0.25000000       0.22663990 </v>
    <v>       0.25000000       0.75000000       0.22663990 </v>
    <v>       0.75000000       0.25000000       0.22663990 </v>
    <v>       0.75000000       0.75000000       0.22663990 </v>
    <v>       0.16666666       0.16666666       0.30218653 </v>
    <v>       0.16666666       0.66666666       0.30218653 </v>
    <v>       0.66666666       0.16666666       0.30218653 </v>
    <v>       0.66666666       0.66666666       0.30218653 </v>
    <v>       0.16666666       0.41666666       0.30218653 </v>
    <v>       0.16666666       0.91666666       0.30218653 </v>
    <v>       0.66666666       0.41666666       0.30218653 </v>
    <v>       0.66666666       0.91666666       0.30218653 </v>
    <v>       0.41666666       0.16666666       0.30218653 </v>
    <v>       0.41666666       0.66666666       0.30218653 </v>
    <v>       0.91666666       0.16666666       0.30218653 </v>
    <v>       0.91666666       0.66666666       0.30218653 </v>
    <v>       0.41666666       0.41666666       0.30218653 </v>
    <v>       0.41666666       0.91666666       0.30218653 </v>
    <v>       0.91666666       0.41666666       0.30218653 </v>
    <v>       0.91666666       0.91666666       0.30218653 </v>
    <v>       0.08333333       0.08333333       0.37716320 </v>
    <v>       0.08333333       0.58333333       0.37716320 </v>
    <v>       0.58333333       0.08333333       0.37716320 </v>
    <v>       0.58333333       0.58333333       0.37716320 </v>
    <v>       0.08351614       0.33324190       0.37729758 </v>
    <v>       0.08351614       0.83324190       0.37729758 </v>
    <v>       0.58351614       0.33324190       0.37729758 </v>
    <v>       0.58351614       0.83324190       0.37729758 </v>
    <v>       0.33324190       0.08351614       0.37729758 </v>
    <v>       0.33324190       0.58351614       0.37729758 </v>
    <v>       0.83324190       0.08351614       0.37729758 </v>
    <v>       0.83324190       0.58351614       0.37729758 </v>
    <v>       0.33324190       0.33324190       0.37729758 </v>
    <v>       0.33324190       0.83324190       0.37729758 </v>
    <v>       0.83324190       0.33324190       0.37729758 </v>
    <v>       0.83324190       0.83324190       0.37729758 </v>
    <v>       0.00012997       0.00012997       0.45242342 </v>
    <v>       0.00012997       0.50012997       0.45242342 </v>
    <v>       0.50012997       0.00012997       0.45242342 </v>
    <v>       0.50012997       0.50012997       0.45242342 </v>
    <v>       0.00012997       0.24974005       0.45242342 </v>
    <v>       0.00012997       0.74974005       0.45242342 </v>
    <v>       0.50012997       0.24974005       0.45242342 </v>
    <v>       0.50012997       0.74974005       0.45242342 </v>
    <v>       0.24974005       0.00012997       0.45242342 </v>
    <v>       0.24974005       0.50012997       0.45242342 </v>
    <v>       0.74974005       0.00012997       0.45242342 </v>
    <v>       0.74974005       0.50012997       0.45242342 </v>
    <v>       0.25000000       0.25000000       0.45288750 </v>
    <v>       0.25000000       0.75000000       0.45288750 </v>
    <v>       0.75000000       0.25000000       0.45288750 </v>
    <v>       0.75000000       0.75000000       0.45288750 </v>
    <v>       0.16660598       0.16660598       0.52813907 </v>
    <v>       0.16660598       0.66660598       0.52813907 </v>
    <v>       0.66660598       0.16660598       0.52813907 </v>
    <v>       0.66660598       0.66660598       0.52813907 </v>
    <v>       0.16660598       0.41678801       0.52813907 </v>
    <v>       0.16660598       0.91678801       0.52813907 </v>
    <v>       0.66660598       0.41678801       0.52813907 </v>
    <v>       0.66660598       0.91678801       0.52813907 </v>
    <v>       0.41678801       0.16660598       0.52813907 </v>
    <v>       0.41678801       0.66660598       0.52813907 </v>
    <v>       0.91678801       0.16660598       0.52813907 </v>
    <v>       0.91678801       0.66660598       0.52813907 </v>
    <v>       0.41666666       0.41666666       0.52741939 </v>
    <v>       0.41666666       0.91666666       0.52741939 </v>
    <v>       0.91666666       0.41666666       0.52741939 </v>
    <v>       0.91666666       0.91666666       0.52741939 </v>
    <v>       0.08333333       0.08333333       0.60253339 </v>
    <v>       0.08333333       0.58333333       0.60253339 </v>
    <v>       0.58333333       0.08333333       0.60253339 </v>
    <v>       0.58333333       0.58333333       0.60253339 </v>
    <v>       0.08130935       0.33434529       0.60320464 </v>
    <v>       0.08130935       0.83434529       0.60320464 </v>
    <v>       0.58130935       0.33434529       0.60320464 </v>
    <v>       0.58130935       0.83434529       0.60320464 </v>
    <v>       0.33434529       0.08130935       0.60320464 </v>
    <v>       0.33434529       0.58130935       0.60320464 </v>
    <v>       0.83434529       0.08130935       0.60320464 </v>
    <v>       0.83434529       0.58130935       0.60320464 </v>
    <v>       0.33434529       0.33434529       0.60320464 </v>
    <v>       0.33434529       0.83434529       0.60320464 </v>
    <v>       0.83434529       0.33434529       0.60320464 </v>
    <v>       0.83434529       0.83434529       0.60320464 </v>
    <v>       0.49635262       0.49873419       0.68108137 </v>
    <v>       0.49714648       0.99714648       0.68057248 </v>
    <v>       0.99714648       0.49714648       0.68057248 </v>
    <v>       0.99714648       0.99714648       0.68057248 </v>
    <v>       0.49714648       0.25570704       0.68057248 </v>
    <v>       0.49714648       0.75570704       0.68057248 </v>
    <v>       0.99714648       0.25570704       0.68057248 </v>
    <v>       0.99714648       0.75570704       0.68057248 </v>
    <v>       0.25570704       0.49714648       0.68057248 </v>
    <v>       0.25570704       0.99714648       0.68057248 </v>
    <v>       0.75570704       0.49714648       0.68057248 </v>
    <v>       0.75570704       0.99714648       0.68057248 </v>
    <v>       0.25000000       0.25000000       0.67480871 </v>
    <v>       0.25000000       0.75000000       0.67480871 </v>
    <v>       0.75000000       0.25000000       0.67480871 </v>
    <v>       0.75000000       0.75000000       0.67480871 </v>
    <v>       0.08333333       0.08333333       0.72043888 </v>
    <v>       0.08333333       0.58333333       0.72043888 </v>
    <v>       0.58333333       0.08333333       0.72043888 </v>
    <v>       0.58333333       0.58333333       0.72043888 </v>
   </varray>
  </structure>
  <varray name="forces" >
   <v>       0.00791782       0.00452297       0.07174688 </v>
   <v>       0.00787165       0.00460754       0.07168216 </v>
   <v>       0.00789222       0.00453626       0.07166798 </v>
   <v>       0.00795990       0.00451650       0.07148482 </v>
   <v>       0.00004812      -0.00909212       0.07173536 </v>
   <v>      -0.00002992      -0.00917936       0.07160962 </v>
   <v>       0.00010999      -0.00911684       0.07184053 </v>
   <v>      -0.00007268      -0.00912775       0.07181398 </v>
   <v>      -0.00787378       0.00460302       0.07162438 </v>
   <v>      -0.00798742       0.00456527       0.07176744 </v>
   <v>      -0.00790770       0.00464114       0.07161915 </v>
   <v>      -0.00792808       0.00452309       0.07164395 </v>
   <v>       0.00000088      -0.00000729       0.08636874 </v>
   <v>      -0.00005116      -0.00002918       0.08636594 </v>
   <v>      -0.00010817      -0.00002984       0.08649878 </v>
   <v>       0.00006884      -0.00004056       0.08629238 </v>
   <v>       0.00706013       0.00400365      -0.08004967 </v>
   <v>       0.00709073       0.00399259      -0.08003254 </v>
   <v>       0.00701233       0.00416607      -0.08000505 </v>
   <v>       0.00697971       0.00401753      -0.07991060 </v>
   <v>       0.00004910      -0.00799275      -0.07995658 </v>
   <v>      -0.00013617      -0.00803271      -0.07985559 </v>
   <v>       0.00002519      -0.00811313      -0.08005704 </v>
   <v>      -0.00003786      -0.00807005      -0.07993558 </v>
   <v>      -0.00691677       0.00406214      -0.07994781 </v>
   <v>      -0.00690915       0.00407012      -0.08001889 </v>
   <v>      -0.00703326       0.00395902      -0.07991933 </v>
   <v>      -0.00712313       0.00404763      -0.07989462 </v>
   <v>       0.00002159      -0.00007361      -0.05914292 </v>
   <v>      -0.00005996       0.00001838      -0.05924343 </v>
   <v>       0.00001917      -0.00001505      -0.05923575 </v>
   <v>      -0.00000064      -0.00000452      -0.05926266 </v>
   <v>      -0.00006719      -0.00001053       0.00009568 </v>
   <v>       0.00004788      -0.00000237      -0.00008730 </v>
   <v>       0.00004687       0.00013220      -0.00010681 </v>
   <v>      -0.00007548       0.00000710       0.00005930 </v>
   <v>      -0.00002209      -0.00002983      -0.00002097 </v>
   <v>       0.00000649      -0.00000816       0.00000685 </v>
   <v>       0.00011539      -0.00014678      -0.00008257 </v>
   <v>       0.00008131      -0.00002269      -0.00017270 </v>
   <v>      -0.00005122       0.00004296       0.00013592 </v>
   <v>      -0.00001385       0.00014645      -0.00001885 </v>
   <v>      -0.00000275       0.00000801      -0.00004114 </v>
   <v>       0.00007728       0.00003978      -0.00014340 </v>
   <v>      -0.00002091      -0.00009668      -0.00001662 </v>
   <v>       0.00003611      -0.00011156      -0.00014131 </v>
   <v>      -0.00001919       0.00004750      -0.00017447 </v>
   <v>      -0.00000654      -0.00001262       0.00001632 </v>
   <v>       0.00006681       0.00003094      -0.00000035 </v>
   <v>       0.00005948       0.00000770       0.00000242 </v>
   <v>      -0.00007301      -0.00001235      -0.00006455 </v>
   <v>      -0.00004527       0.00002287      -0.00002384 </v>
   <v>      -0.00018057       0.00004473       0.00007099 </v>
   <v>      -0.00001691      -0.00009554       0.00029615 </v>
   <v>       0.00015045      -0.00007613       0.00015780 </v>
   <v>       0.00008034       0.00002703       0.00009269 </v>
   <v>      -0.00005456      -0.00013433       0.00008241 </v>
   <v>      -0.00002328       0.00004163      -0.00006636 </v>
   <v>      -0.00011127       0.00021240       0.00019163 </v>
   <v>       0.00003432      -0.00001679       0.00006138 </v>
   <v>       0.00006515       0.00011750       0.00002895 </v>
   <v>       0.00000243       0.00006958       0.00004986 </v>
   <v>       0.00010047      -0.00002670       0.00015885 </v>
   <v>      -0.00012587      -0.00008245       0.00015122 </v>
   <v>      -0.00010323       0.00006938      -0.00012723 </v>
   <v>       0.00011507      -0.00013713      -0.00004566 </v>
   <v>       0.00006369      -0.00019821      -0.00021234 </v>
   <v>       0.00003934       0.00000188       0.00012661 </v>
   <v>      -0.00015345       0.00006566      -0.00011291 </v>
   <v>      -0.00012873       0.00004401       0.00001405 </v>
   <v>      -0.00028097       0.00041578       0.00061450 </v>
   <v>       0.00001747       0.00004814       0.00015680 </v>
   <v>      -0.00026969      -0.00024302      -0.00015618 </v>
   <v>      -0.00012543      -0.00024260       0.00048054 </v>
   <v>       0.00016254      -0.00026451      -0.00035703 </v>
   <v>       0.00008078      -0.00002624      -0.00000779 </v>
   <v>      -0.00002733       0.00027021       0.00110996 </v>
   <v>       0.00009768       0.00002751      -0.00000576 </v>
   <v>       0.00014961      -0.00003438      -0.00022804 </v>
   <v>       0.00006202       0.00009609      -0.00008973 </v>
   <v>       0.00020974      -0.00024447      -0.00009922 </v>
   <v>      -0.00045463       0.00003987      -0.00031297 </v>
   <v>       0.00048469       0.00132096       0.00049087 </v>
   <v>      -0.00416144      -0.00360305       0.00494972 </v>
   <v>       0.00053234      -0.00029087      -0.00070318 </v>
   <v>      -0.00021778       0.00030499      -0.00064898 </v>
   <v>       0.00081159       0.01454061       0.02092495 </v>
   <v>       0.00007682      -0.00031559       0.00007227 </v>
   <v>      -0.00013717       0.00022401      -0.00034636 </v>
   <v>       0.00551746      -0.00567066       0.00971697 </v>
   <v>      -0.00043731       0.00121061       0.00043382 </v>
   <v>      -0.00080237       0.00004169       0.00010762 </v>
   <v>       0.00113548       0.00008769       0.00019756 </v>
   <v>      -0.00021168       0.00048830      -0.00089890 </v>
   <v>      -0.00051550      -0.00015882      -0.00026372 </v>
   <v>       0.00034659      -0.00004504      -0.00072580 </v>
   <v>      -0.09495366      -0.12600005      -0.10379821 </v>
   <v>      -0.00009859      -0.00066102      -0.00070183 </v>
   <v>       0.00020263      -0.00033887      -0.00079535 </v>
   <v>      -0.00052944       0.00008159      -0.00129509 </v>
   <v>       0.01262881       0.02919351      -0.00271137 </v>
   <v>       0.00855427       0.02539437      -0.00996029 </v>
   <v>      -0.00019220       0.00004087      -0.00075375 </v>
   <v>      -0.00055914       0.00011481      -0.00102874 </v>
   <v>       0.00589226      -0.00119508      -0.00211182 </v>
   <v>      -0.00011849       0.00108803      -0.00111717 </v>
   <v>       0.01003208      -0.00470374      -0.00879371 </v>
   <v>      -0.00020083       0.00073710      -0.00074015 </v>
   <v>       0.00023475       0.00003008      -0.00036996 </v>
   <v>      -0.01012465       0.01391661      -0.00165256 </v>
   <v>      -0.01037222       0.01572089      -0.00132646 </v>
   <v>       0.00054645       0.00091339      -0.00082556 </v>
   <v>       0.00052925      -0.00038005       0.00237490 </v>
   <v>      -0.00227723       0.00048510       0.00198600 </v>
   <v>       0.00254630       0.00104412       0.00178407 </v>
   <v>       0.07637107       0.03665453       0.08799133 </v>
  </varray>
  <varray name="stress" >
   <v>      -2.00929206       0.02446329       0.05250081 </v>
   <v>       0.02446327      -2.08539731       0.01177086 </v>
   <v>       0.05250080       0.01177085      -2.17500909 </v>
  </varray>
  <energy>
   <i name="e_fr_energy">   -427.46710584 </i>
   <i name="e_wo_entrp">   -427.44051524 </i>
   <i name="e_0_energy">     -0.05318121 </i>
  </energy>
  <time name="totalsc"> 6982.23 7027.00</time>
  <eigenvalues>
   <array>
    <dimension dim="1">band</dimension>
    <dimension dim="2">kpoint</dimension>
    <dimension dim="3">spin</dimension>
    <field>eigene</field>
    <field>occ</field>
    <set>
     <set comment="spin 1">
      <set comment="kpoint 1">
       <r>  -18.6364    1.0000 </r>
       <r>  -18.6016    1.0000 </r>
       <r>  -18.5930    1.0000 </r>
       <r>  -18.5928    1.0000 </r>
       <r>   -9.4518    1.0000 </r>
       <r>   -8.9592    1.0000 </r>
       <r>   -8.1723    1.0000 </r>
       <r>   -7.5983    1.0000 </r>
       <r>   -7.5982    1.0000 </r>
       <r>   -7.5974    1.0000 </r>
       <r>   -7.5762    1.0000 </r>
       <r>   -7.5761    1.0000 </r>
       <r>   -7.5759    1.0000 </r>
       <r>   -7.2188    1.0000 </r>
       <r>   -7.2183    1.0000 </r>
       <r>   -7.2169    1.0000 </r>
       <r>   -7.1986    1.0000 </r>
       <r>   -7.1443    1.0000 </r>
       <r>   -7.1442    1.0000 </r>
       <r>   -7.1436    1.0000 </r>
       <r>   -6.6275    1.0000 </r>
       <r>   -6.6262    1.0000 </r>
       <r>   -6.6252    1.0000 </r>
       <r>   -6.4845    1.0000 </r>
       <r>   -6.4841    1.0000 </r>
       <r>   -6.4835    1.0000 </r>
       <r>   -6.2509    1.0000 </r>
       <r>   -5.9507    1.0000 </r>
       <r>   -5.9494    1.0000 </r>
       <r>   -5.9472    1.0000 </r>
       <r>   -5.7427    1.0000 </r>
       <r>   -5.7406    1.0000 </r>
       <r>   -5.7403    1.0000 </r>
       <r>   -5.6693    1.0000 </r>
       <r>   -5.6314    1.0000 </r>
       <r>   -5.6300    1.0000 </r>
       <r>   -5.4383    1.0000 </r>
       <r>   -5.4245    1.0000 </r>
       <r>   -5.4192    1.0000 </r>
       <r>   -5.4088    1.0000 </r>
       <r>   -5.3441    1.0000 </r>
       <r>   -5.3429    1.0000 </r>
       <r>   -5.3405    1.0000 </r>
       <r>   -5.3230    1.0000 </r>
       <r>   -5.2823    1.0000 </r>
       <r>   -5.2822    1.0000 </r>
       <r>   -5.2205    1.0000 </r>
       <r>   -5.2128    1.0000 </r>
       <r>   -5.2075    1.0000 </r>
       <r>   -5.2073    1.0000 </r>
       <r>   -5.1330    1.0000 </r>
       <r>   -5.1329    1.0000 </r>
       <r>   -5.1222    1.0000 </r>
       <r>   -5.0547    1.0000 </r>
       <r>   -5.0325    1.0000 </r>
       <r>   -5.0324    1.0000 </r>
       <r>   -5.0031    1.0000 </r>
       <r>   -5.0024    1.0000 </r>
       <r>   -5.0019    1.0000 </r>
       <r>   -4.9767    1.0000 </r>
       <r>   -4.9766    1.0000 </r>
       <r>   -4.9764    1.0000 </r>
       <r>   -4.9614    1.0000 </r>
       <r>   -4.9612    1.0000 </r>
       <r>   -4.9561    1.0000 </r>
       <r>   -4.9558    1.0000 </r>
       <r>   -4.9553    1.0000 </r>
       <r>   -4.9345    1.0000 </r>
       <r>   -4.8815    1.0000 </r>
       <r>   -4.8813    1.0000 </r>
       <r>   -4.8809    1.0000 </r>
       <r>   -4.8529    1.0000 </r>
       <r>   -4.8528    1.0000 </r>
       <r>   -4.8526    1.0000 </r>
       <r>   -4.8393    1.0000 </r>
       <r>   -4.8236    1.0000 </r>
       <r>   -4.8234    1.0000 </r>
       <r>   -4.8127    1.0000 </r>
       <r>   -4.8111    1.0000 </r>
       <r>   -4.8109    1.0000 </r>
       <r>   -4.7482    1.0000 </r>
       <r>   -4.7479    1.0000 </r>
       <r>   -4.7475    1.0000 </r>
       <r>   -4.7056    1.0000 </r>
       <r>   -4.7053    1.0000 </r>
       <r>   -4.7052    1.0000 </r>
       <r>   -4.7017    1.0000 </r>
       <r>   -4.6932    1.0000 </r>
       <r>   -4.6931    1.0000 </r>
       <r>   -4.6209    1.0000 </r>
       <r>   -4.6201    1.0000 </r>
       <r>   -4.6192    1.0000 </r>
       <r>   -4.5851    1.0000 </r>
       <r>   -4.5847    1.0000 </r>
       <r>   -4.5846    1.0000 </r>
       <r>   -4.5808    1.0000 </r>
       <r>   -4.5770    1.0000 </r>
       <r>   -4.5770    1.0000 </r>
       <r>   -4.5444    1.0000 </r>
       <r>   -4.5379    1.0000 </r>
       <r>   -4.5376    1.0000 </r>
       <r>   -4.5375    1.0000 </r>
       <r>   -4.5373    1.0000 </r>
       <r>   -4.5372    1.0000 </r>
       <r>   -4.5270    1.0000 </r>
       <r>   -4.5269    1.0000 </r>
       <r>   -4.5268    1.0000 </r>
       <r>   -4.5028    1.0000 </r>
       <r>   -4.5026    1.0000 </r>
       <r>   -4.5023    1.0000 </r>
       <r>   -4.4595    1.0000 </r>
       <r>   -4.4593    1.0000 </r>
       <r>   -4.4592    1.0000 </r>
       <r>   -4.4535    1.0000 </r>
       <r>   -4.4535    1.0000 </r>
       <r>   -4.4535    1.0000 </r>
       <r>   -4.4459    1.0000 </r>
       <r>   -4.4454    1.0000 </r>
       <r>   -4.4449    1.0000 </r>
       <r>   -4.4070    1.0000 </r>
       <r>   -4.4063    1.0000 </r>
       <r>   -4.4041    1.0000 </r>
       <r>   -4.3889    1.0000 </r>
       <r>   -4.3875    1.0000 </r>
       <r>   -4.3504    1.0000 </r>
       <r>   -4.3490    1.0000 </r>
       <r>   -4.3482    1.0000 </r>
       <r>   -4.3361    1.0000 </r>
       <r>   -4.2432    1.0000 </r>
       <r>   -4.2414    1.0000 </r>
       <r>   -4.2275    1.0000 </r>
       <r>   -4.2274    1.0000 </r>
       <r>   -4.2271    1.0000 </r>
       <r>   -4.2186    1.0000 </r>
       <r>   -4.2183    1.0000 </r>
       <r>   -4.2182    1.0000 </r>
       <r>   -4.2164    1.0000 </r>
       <r>   -4.2163    1.0000 </r>
       <r>   -4.2160    1.0000 </r>
       <r>   -4.2129    1.0000 </r>
       <r>   -4.2129    1.0000 </r>
       <r>   -4.2128    1.0000 </r>
       <r>   -4.2104    1.0000 </r>
       <r>   -4.2101    1.0000 </r>
       <r>   -4.2097    1.0000 </r>
       <r>   -4.1787    1.0000 </r>
       <r>   -4.1785    1.0000 </r>
       <r>   -4.1782    1.0000 </r>
       <r>   -4.0960    1.0000 </r>
       <r>   -4.0958    1.0000 </r>
       <r>   -4.0954    1.0000 </r>
       <r>   -4.0781    1.0000 </r>
       <r>   -4.0777    1.0000 </r>
       <r>   -4.0767    1.0000 </r>
       <r>   -4.0751    1.0000 </r>
       <r>   -4.0751    1.0000 </r>
       <r>   -4.0746    1.0000 </r>
       <r>   -4.0554    1.0000 </r>
       <r>   -4.0554    1.0000 </r>
       <r>   -4.0552    1.0000 </r>
       <r>   -4.0432    1.0000 </r>
       <r>   -4.0430    1.0000 </r>
       <r>   -4.0422    1.0000 </r>
       <r>   -4.0156    1.0000 </r>
       <r>   -4.0036    1.0000 </r>
       <r>   -4.0034    1.0000 </r>
       <r>   -4.0031    1.0000 </r>
       <r>   -3.9689    1.0000 </r>
       <r>   -3.9681    1.0000 </r>
       <r>   -3.9371    1.0000 </r>
       <r>   -3.9369    1.0000 </r>
       <r>   -3.9368    1.0000 </r>
       <r>   -3.9282    1.0000 </r>
       <r>   -3.9280    1.0000 </r>
       <r>   -3.9272    1.0000 </r>
       <r>   -3.9083    1.0000 </r>
       <r>   -3.9081    1.0000 </r>
       <r>   -3.9076    1.0000 </r>
       <r>   -3.8785    1.0000 </r>
       <r>   -3.8783    1.0000 </r>
       <r>   -3.8779    1.0000 </r>
       <r>   -3.8761    1.0000 </r>
       <r>   -3.8757    1.0000 </r>
       <r>   -3.8740    1.0000 </r>
       <r>   -3.8322    1.0000 </r>
       <r>   -3.8300    1.0000 </r>
       <r>   -3.8298    1.0000 </r>
       <r>   -3.8294    1.0000 </r>
       <r>   -3.8110    1.0000 </r>
       <r>   -3.8109    1.0000 </r>
       <r>   -3.8107    1.0000 </r>
       <r>   -3.7972    1.0000 </r>
       <r>   -3.7971    1.0000 </r>
       <r>   -3.7970    1.0000 </r>
       <r>   -3.7855    1.0000 </r>
       <r>   -3.7852    1.0000 </r>
       <r>   -3.7845    1.0000 </r>
       <r>   -3.7737    1.0000 </r>
       <r>   -3.7735    1.0000 </r>
       <r>   -3.7734    1.0000 </r>
       <r>   -3.7497    1.0000 </r>
       <r>   -3.7495    1.0000 </r>
       <r>   -3.7488    1.0000 </r>
       <r>   -3.7078    1.0000 </r>
       <r>   -3.7077    1.0000 </r>
       <r>   -3.7076    1.0000 </r>
       <r>   -3.7060    1.0000 </r>
       <r>   -3.7058    1.0000 </r>
       <r>   -3.7057    1.0000 </r>
       <r>   -3.6815    1.0000 </r>
       <r>   -3.6812    1.0000 </r>
       <r>   -3.6804    1.0000 </r>
       <r>   -3.6756    1.0000 </r>
       <r>   -3.6756    1.0000 </r>
       <r>   -3.6755    1.0000 </r>
       <r>   -3.6677    1.0000 </r>
       <r>   -3.6676    1.0000 </r>
       <r>   -3.6405    1.0000 </r>
       <r>   -3.6396    1.0000 </r>
       <r>   -3.6377    1.0000 </r>
       <r>   -3.6167    1.0000 </r>
       <r>   -3.6147    1.0000 </r>
       <r>   -3.6145    1.0000 </r>
       <r>   -3.6136    1.0000 </r>
       <r>   -3.6017    1.0000 </r>
       <r>   -3.6015    1.0000 </r>
       <r>   -3.6010    1.0000 </r>
       <r>   -3.6001    1.0000 </r>
       <r>   -3.5997    1.0000 </r>
       <r>   -3.5992    1.0000 </r>
       <r>   -3.5962    1.0000 </r>
       <r>   -3.5961    1.0000 </r>
       <r>   -3.5957    1.0000 </r>
       <r>   -3.5803    1.0000 </r>
       <r>   -3.5799    1.0000 </r>
       <r>   -3.5798    1.0000 </r>
       <r>   -3.5499    1.0000 </r>
       <r>   -3.5488    1.0000 </r>
       <r>   -3.5483    1.0000 </r>
       <r>   -3.5363    1.0000 </r>
       <r>   -3.5292    1.0000 </r>
       <r>   -3.5109    1.0000 </r>
       <r>   -3.5106    1.0000 </r>
       <r>   -3.4472    1.0000 </r>
       <r>   -3.4466    1.0000 </r>
       <r>   -3.4464    1.0000 </r>
       <r>   -3.4410    1.0000 </r>
       <r>   -3.4327    1.0000 </r>
       <r>   -3.4325    1.0000 </r>
       <r>   -3.4324    1.0000 </r>
       <r>   -3.4270    1.0000 </r>
       <r>   -3.4269    1.0000 </r>
       <r>   -3.4268    1.0000 </r>
       <r>   -3.4194    1.0000 </r>
       <r>   -3.4180    1.0000 </r>
       <r>   -3.4177    1.0000 </r>
       <r>   -3.4171    1.0000 </r>
       <r>   -3.4170    1.0000 </r>
       <r>   -3.4147    1.0000 </r>
       <r>   -3.4145    1.0000 </r>
       <r>   -3.4143    1.0000 </r>
       <r>   -3.4091    1.0000 </r>
       <r>   -3.3981    1.0000 </r>
       <r>   -3.3971    1.0000 </r>
       <r>   -3.3969    1.0000 </r>
       <r>   -3.3852    1.0000 </r>
       <r>   -3.3852    1.0000 </r>
       <r>   -3.3741    1.0000 </r>
       <r>   -3.3620    1.0000 </r>
       <r>   -3.3620    1.0000 </r>
       <r>   -3.3608    1.0000 </r>
       <r>   -3.3491    1.0000 </r>
       <r>   -3.3487    1.0000 </r>
       <r>   -3.3487    1.0000 </r>
       <r>   -3.3465    1.0000 </r>
       <r>   -3.3436    1.0000 </r>
       <r>   -3.3359    1.0000 </r>
       <r>   -3.3351    1.0000 </r>
       <r>   -3.3340    1.0000 </r>
       <r>   -3.3137    1.0000 </r>
       <r>   -3.3137    1.0000 </r>
       <r>   -3.3041    1.0000 </r>
       <r>   -3.3036    1.0000 </r>
       <r>   -3.3031    1.0000 </r>
       <r>   -3.2718    1.0000 </r>
       <r>   -3.2715    1.0000 </r>
       <r>   -3.2711    1.0000 </r>
       <r>   -3.2671    1.0000 </r>
       <r>   -3.2670    1.0000 </r>
       <r>   -3.2579    1.0000 </r>
       <r>   -3.2578    1.0000 </r>
       <r>   -3.2546    1.0000 </r>
[...]
       <r>   -14.5473     0.0000     8.0000 </r>
       <r>   -14.4530     0.0000     8.0000 </r>
       <r>   -14.3587     0.0000     8.0000 </r>
       <r>   -14.2644     0.0000     8.0000 </r>
       <r>   -14.1701     0.0000     8.0000 </r>
       <r>   -14.0758     0.0000     8.0000 </r>
       <r>   -13.9815     0.0000     8.0000 </r>
       <r>   -13.8872     0.0000     8.0000 </r>
       <r>   -13.7929     0.0000     8.0000 </r>
       <r>   -13.6987     0.0000     8.0000 </r>
       <r>   -13.6044     0.0000     8.0000 </r>
       <r>   -13.5101     0.0000     8.0000 </r>
       <r>   -13.4158     0.0000     8.0000 </r>
       <r>   -13.3215     0.0000     8.0000 </r>
       <r>   -13.2272     0.0000     8.0000 </r>
       <r>   -13.1329     0.0000     8.0000 </r>
       <r>   -13.0386     0.0000     8.0000 </r>
       <r>   -12.9443     0.0000     8.0000 </r>
       <r>   -12.8500     0.0000     8.0000 </r>
       <r>   -12.7557     0.0000     8.0000 </r>
       <r>   -12.6614     0.0000     8.0000 </r>
       <r>   -12.5671     0.0000     8.0000 </r>
       <r>   -12.4728     0.0000     8.0000 </r>
       <r>   -12.3785     0.0000     8.0000 </r>
       <r>   -12.2842     0.0000     8.0000 </r>
       <r>   -12.1899     0.0000     8.0000 </r>
       <r>   -12.0956     0.0000     8.0000 </r>
       <r>   -12.0013     0.0000     8.0000 </r>
       <r>   -11.9070     0.0000     8.0000 </r>
       <r>   -11.8127     0.0000     8.0000 </r>
       <r>   -11.7184     0.0000     8.0000 </r>
       <r>   -11.6241     0.0000     8.0000 </r>
       <r>   -11.5298     0.0000     8.0000 </r>
       <r>   -11.4355     0.0000     8.0000 </r>
       <r>   -11.3412     0.0000     8.0000 </r>
       <r>   -11.2469     0.0000     8.0000 </r>
       <r>   -11.1526     0.0000     8.0000 </r>
       <r>   -11.0583     0.0000     8.0000 </r>
       <r>   -10.9640     0.0000     8.0000 </r>
       <r>   -10.8697     0.0000     8.0000 </r>
       <r>   -10.7754     0.0000     8.0000 </r>
       <r>   -10.6811     0.0000     8.0000 </r>
       <r>   -10.5868     0.0000     8.0000 </r>
       <r>   -10.4925     0.0000     8.0000 </r>
       <r>   -10.3982     0.0000     8.0000 </r>
       <r>   -10.3039     0.0000     8.0000 </r>
       <r>   -10.2097     0.0000     8.0000 </r>
       <r>   -10.1154     0.0000     8.0000 </r>
       <r>   -10.0211     0.0000     8.0000 </r>
       <r>    -9.9268     0.0000     8.0000 </r>
       <r>    -9.8325     0.0000     8.0000 </r>
       <r>    -9.7382     0.0000     8.0000 </r>
       <r>    -9.6439     0.0000     8.0000 </r>
       <r>    -9.5496     0.0038     8.0004 </r>
       <r>    -9.4553     0.6089     8.0578 </r>
       <r>    -9.3610     2.1018     8.2560 </r>
       <r>    -9.2667     6.2352     8.8439 </r>
       <r>    -9.1724     0.3738     8.8792 </r>
       <r>    -9.0781     4.3467     9.2891 </r>
       <r>    -8.9838     5.9522     9.8503 </r>
       <r>    -8.8895     7.2958    10.5383 </r>
       <r>    -8.7952     6.6870    11.1689 </r>
       <r>    -8.7009     0.9205    11.2557 </r>
       <r>    -8.6066    10.5915    12.2544 </r>
       <r>    -8.5123    14.7604    13.6463 </r>
       <r>    -8.4180     6.7930    14.2869 </r>
       <r>    -8.3237     6.7403    14.9225 </r>
       <r>    -8.2294     0.9729    15.0142 </r>
       <r>    -8.1351     9.6580    15.9249 </r>
       <r>    -8.0408    15.2439    17.3624 </r>
       <r>    -7.9465    12.0601    18.4996 </r>
       <r>    -7.8522    21.3281    20.5108 </r>
       <r>    -7.7579     7.8067    21.2469 </r>
       <r>    -7.6636     6.6011    21.8694 </r>
       <r>    -7.5693    11.0499    22.9114 </r>
       <r>    -7.4750    14.9320    24.3194 </r>
       <r>    -7.3807    17.9478    26.0119 </r>
       <r>    -7.2864     7.7919    26.7466 </r>
       <r>    -7.1921    20.7858    28.7066 </r>
       <r>    -7.0978    14.7992    30.1022 </r>
       <r>    -7.0035    16.9359    31.6992 </r>
       <r>    -6.9092    11.8782    32.8193 </r>
       <r>    -6.8150    32.3830    35.8729 </r>
       <r>    -6.7207    16.2225    37.4026 </r>
       <r>    -6.6264    20.6287    39.3478 </r>
       <r>    -6.5321    11.0835    40.3930 </r>
       <r>    -6.4378    23.6348    42.6217 </r>
       <r>    -6.3435    25.2515    45.0028 </r>
       <r>    -6.2492    16.4598    46.5550 </r>
       <r>    -6.1549    45.8041    50.8742 </r>
       <r>    -6.0606    22.9810    53.0412 </r>
       <r>    -5.9663    42.3956    57.0390 </r>
       <r>    -5.8720    26.8522    59.5711 </r>
       <r>    -5.7777    16.3974    61.1173 </r>
       <r>    -5.6834    55.3549    66.3371 </r>
       <r>    -5.5891    85.2551    74.3765 </r>
       <r>    -5.4948    77.5456    81.6888 </r>
       <r>    -5.4005    58.8503    87.2382 </r>
       <r>    -5.3062    90.4743    95.7697 </r>
       <r>    -5.2119    89.3172   104.1921 </r>
       <r>    -5.1176   105.2979   114.1214 </r>
       <r>    -5.0233   116.5892   125.1154 </r>
       <r>    -4.9290   140.9641   138.4079 </r>
       <r>    -4.8347   131.6059   150.8180 </r>
       <r>    -4.7404   127.9352   162.8820 </r>
       <r>    -4.6461   153.6032   177.3663 </r>
       <r>    -4.5518   203.5179   196.5575 </r>
       <r>    -4.4575   230.9757   218.3379 </r>
       <r>    -4.3632   281.3560   244.8690 </r>
       <r>    -4.2689   264.8237   269.8411 </r>
       <r>    -4.1746   218.2545   290.4220 </r>
       <r>    -4.0803   212.4236   310.4529 </r>
       <r>    -3.9860   205.2892   329.8111 </r>
       <r>    -3.8917   277.5948   355.9876 </r>
       <r>    -3.7974   273.7728   381.8036 </r>
       <r>    -3.7031   311.5453   411.1815 </r>
       <r>    -3.6088   323.3913   441.6764 </r>
       <r>    -3.5145   323.9081   472.2200 </r>
       <r>    -3.4202   378.3684   507.8991 </r>
       <r>    -3.3260   468.2059   552.0497 </r>
       <r>    -3.2317   508.0095   599.9536 </r>
       <r>    -3.1374   447.6237   642.1633 </r>
       <r>    -3.0431   452.7106   684.8527 </r>
       <r>    -2.9488   337.9700   716.7223 </r>
       <r>    -2.8545   357.8629   750.4678 </r>
       <r>    -2.7602   348.7058   783.3498 </r>
       <r>    -2.6659   397.5993   820.8423 </r>
       <r>    -2.5716   420.7007   860.5133 </r>
       <r>    -2.4773   382.2356   896.5570 </r>
       <r>    -2.3830   426.5817   936.7825 </r>
       <r>    -2.2887   424.9222   976.8515 </r>
       <r>    -2.1944   429.9447  1017.3942 </r>
       <r>    -2.1001   519.9630  1066.4253 </r>
       <r>    -2.0058   612.3458  1124.1678 </r>
       <r>    -1.9115   470.8351  1168.5663 </r>
       <r>    -1.8172   185.0523  1186.0162 </r>
       <r>    -1.7229    76.4263  1193.2230 </r>
       <r>    -1.6286    50.3882  1197.9745 </r>
       <r>    -1.5343    59.3758  1203.5734 </r>
       <r>    -1.4400    55.9646  1208.8507 </r>
       <r>    -1.3457    91.8120  1217.5084 </r>
       <r>    -1.2514    60.3191  1223.1963 </r>
       <r>    -1.1571    39.7313  1226.9428 </r>
       <r>    -1.0628    11.9388  1228.0686 </r>
       <r>    -0.9685    44.4013  1232.2556 </r>
       <r>    -0.8742    38.7581  1235.9103 </r>
       <r>    -0.7799    45.4143  1240.1928 </r>
       <r>    -0.6856    42.0664  1244.1595 </r>
       <r>    -0.5913    63.1180  1250.1114 </r>
       <r>    -0.4970    21.4151  1252.1308 </r>
       <r>    -0.4027    31.9988  1255.1482 </r>
       <r>    -0.3084    38.7111  1258.7985 </r>
       <r>    -0.2141    40.3357  1262.6021 </r>
       <r>    -0.1198    25.5837  1265.0145 </r>
       <r>    -0.0255    33.6226  1268.1850 </r>
       <r>     0.0688    47.2897  1272.6443 </r>
       <r>     0.1630    44.8139  1276.8702 </r>
       <r>     0.2573    14.0965  1278.1994 </r>
       <r>     0.3516    24.7038  1280.5289 </r>
       <r>     0.4459    42.0024  1284.4896 </r>
       <r>     0.5402    34.9360  1287.7840 </r>
       <r>     0.6345    28.1811  1290.4414 </r>
       <r>     0.7288    51.9572  1295.3408 </r>
       <r>     0.8231    38.1868  1298.9417 </r>
       <r>     0.9174    31.6832  1301.9294 </r>
       <r>     1.0117    28.7841  1304.6437 </r>
       <r>     1.1060    28.0724  1307.2908 </r>
       <r>     1.2003    47.3106  1311.7521 </r>
       <r>     1.2946    22.0070  1313.8273 </r>
       <r>     1.3889    18.5822  1315.5795 </r>
       <r>     1.4832    37.2155  1319.0888 </r>
       <r>     1.5775    31.3652  1322.0465 </r>
       <r>     1.6718    29.5371  1324.8318 </r>
       <r>     1.7661    19.8795  1326.7063 </r>
       <r>     1.8604    39.8856  1330.4674 </r>
       <r>     1.9547    37.6694  1334.0196 </r>
       <r>     2.0490    40.2206  1337.8123 </r>
       <r>     2.1433    24.2425  1340.0983 </r>
       <r>     2.2376    38.0742  1343.6885 </r>
       <r>     2.3319    25.5908  1346.1017 </r>
       <r>     2.4262    21.6786  1348.1459 </r>
       <r>     2.5205    16.4913  1349.7010 </r>
       <r>     2.6148    10.4477  1350.6862 </r>
       <r>     2.7091    19.8200  1352.5552 </r>
       <r>     2.8034    32.0596  1355.5783 </r>
       <r>     2.8977    28.0398  1358.2224 </r>
       <r>     2.9920    27.8038  1360.8442 </r>
       <r>     3.0863    19.6405  1362.6962 </r>
       <r>     3.1806    22.7028  1364.8371 </r>
       <r>     3.2749    22.2068  1366.9311 </r>
       <r>     3.3692     8.2654  1367.7105 </r>
       <r>     3.4635    29.7906  1370.5197 </r>
       <r>     3.5577    32.5431  1373.5884 </r>
       <r>     3.6520    27.6597  1376.1966 </r>
       <r>     3.7463     8.1326  1376.9635 </r>
       <r>     3.8406    20.0538  1378.8545 </r>
       <r>     3.9349    44.1557  1383.0183 </r>
       <r>     4.0292    33.4030  1386.1681 </r>
       <r>     4.1235    40.4400  1389.9815 </r>
       <r>     4.2178    52.3329  1394.9163 </r>
       <r>     4.3121    35.1448  1398.2304 </r>
       <r>     4.4064    19.2435  1400.0450 </r>
       <r>     4.5007    22.4414  1402.1612 </r>
       <r>     4.5950    31.5743  1405.1385 </r>
       <r>     4.6893    37.7214  1408.6956 </r>
       <r>     4.7836    40.6206  1412.5260 </r>
       <r>     4.8779    47.8547  1417.0385 </r>
       <r>     4.9722    38.7568  1420.6932 </r>
       <r>     5.0665    40.1766  1424.4817 </r>
       <r>     5.1608    36.8977  1427.9611 </r>
       <r>     5.2551    28.8367  1430.6803 </r>
       <r>     5.3494    59.3654  1436.2783 </r>
       <r>     5.4437    36.7830  1439.7468 </r>
       <r>     5.5380    54.5741  1444.8930 </r>
       <r>     5.6323    34.2505  1448.1228 </r>
       <r>     5.7266    34.4611  1451.3723 </r>
       <r>     5.8209    33.5793  1454.5388 </r>
       <r>     5.9152    32.7752  1457.6294 </r>
       <r>     6.0095    61.2013  1463.4005 </r>
       <r>     6.1038    54.4583  1468.5358 </r>
       <r>     6.1981    45.0399  1472.7829 </r>
       <r>     6.2924    40.3706  1476.5898 </r>
       <r>     6.3867    36.7354  1480.0538 </r>
       <r>     6.4810    51.0787  1484.8704 </r>
       <r>     6.5753    42.3427  1488.8632 </r>
       <r>     6.6696    35.7709  1492.2363 </r>
       <r>     6.7639    37.4722  1495.7698 </r>
       <r>     6.8582    58.8067  1501.3151 </r>
       <r>     6.9525    49.0888  1505.9441 </r>
       <r>     7.0467    36.6078  1509.3961 </r>
       <r>     7.1410    26.6677  1511.9108 </r>
       <r>     7.2353     0.9463  1512.0000 </r>
       <r>     7.3296     0.0001  1512.0000 </r>
       <r>     7.4239     0.0000  1512.0000 </r>
       <r>     7.5182     0.0000  1512.0000 </r>
       <r>     7.6125     0.0000  1512.0000 </r>
       <r>     7.7068     0.0000  1512.0000 </r>
       <r>     7.8011     0.0000  1512.0000 </r>
       <r>     7.8954     0.0000  1512.0000 </r>
       <r>     7.9897     0.0000  1512.0000 </r>
       <r>     8.0840     0.0000  1512.0000 </r>
       <r>     8.1783     0.0000  1512.0000 </r>
       <r>     8.2726     0.0000  1512.0000 </r>
       <r>     8.3669     0.0000  1512.0000 </r>
      </set>
     </set>
    </array>
   </total>
  </dos>
 </calculation>
 <structure name="finalpos" >
  <crystal>
   <varray name="basis" >
    <v>      10.28518105       0.00000000       0.00000000 </v>
    <v>       5.14259052       8.90722807       0.00000000 </v>
    <v>       0.00000000       0.00000000      27.79016876 </v>
   </varray>
   <i name="volume">   2545.92553775 </i>
   <varray name="rec_basis" >
    <v>       0.09722726      -0.05613419       0.00000000 </v>
    <v>       0.00000000       0.11226837       0.00000000 </v>
    <v>       0.00000000       0.00000000       0.03598395 </v>
   </varray>
  </crystal>
  <varray name="positions" >
   <v>       0.00000000       0.00000000       0.22663990 </v>
   <v>       0.00000000       0.50000000       0.22663990 </v>
   <v>       0.50000000       0.00000000       0.22663990 </v>
   <v>       0.50000000       0.50000000       0.22663990 </v>
   <v>       0.00000000       0.25000000       0.22663990 </v>
   <v>       0.00000000       0.75000000       0.22663990 </v>
   <v>       0.50000000       0.25000000       0.22663990 </v>
   <v>       0.50000000       0.75000000       0.22663990 </v>
   <v>       0.25000000       0.00000000       0.22663990 </v>
   <v>       0.25000000       0.50000000       0.22663990 </v>
   <v>       0.75000000       0.00000000       0.22663990 </v>
   <v>       0.75000000       0.50000000       0.22663990 </v>
   <v>       0.25000000       0.25000000       0.22663990 </v>
   <v>       0.25000000       0.75000000       0.22663990 </v>
   <v>       0.75000000       0.25000000       0.22663990 </v>
   <v>       0.75000000       0.75000000       0.22663990 </v>
   <v>       0.16666666       0.16666666       0.30218653 </v>
   <v>       0.16666666       0.66666666       0.30218653 </v>
   <v>       0.66666666       0.16666666       0.30218653 </v>
   <v>       0.66666666       0.66666666       0.30218653 </v>
   <v>       0.16666666       0.41666666       0.30218653 </v>
   <v>       0.16666666       0.91666666       0.30218653 </v>
   <v>       0.66666666       0.41666666       0.30218653 </v>
   <v>       0.66666666       0.91666666       0.30218653 </v>
   <v>       0.41666666       0.16666666       0.30218653 </v>
   <v>       0.41666666       0.66666666       0.30218653 </v>
   <v>       0.91666666       0.16666666       0.30218653 </v>
   <v>       0.91666666       0.66666666       0.30218653 </v>
   <v>       0.41666666       0.41666666       0.30218653 </v>
   <v>       0.41666666       0.91666666       0.30218653 </v>
   <v>       0.91666666       0.41666666       0.30218653 </v>
   <v>       0.91666666       0.91666666       0.30218653 </v>
   <v>       0.08333333       0.08333333       0.37716320 </v>
   <v>       0.08333333       0.58333333       0.37716320 </v>
   <v>       0.58333333       0.08333333       0.37716320 </v>
   <v>       0.58333333       0.58333333       0.37716320 </v>
   <v>       0.08351614       0.33324190       0.37729758 </v>
   <v>       0.08351614       0.83324190       0.37729758 </v>
   <v>       0.58351614       0.33324190       0.37729758 </v>
   <v>       0.58351614       0.83324190       0.37729758 </v>
   <v>       0.33324190       0.08351614       0.37729758 </v>
   <v>       0.33324190       0.58351614       0.37729758 </v>
   <v>       0.83324190       0.08351614       0.37729758 </v>
   <v>       0.83324190       0.58351614       0.37729758 </v>
   <v>       0.33324190       0.33324190       0.37729758 </v>
   <v>       0.33324190       0.83324190       0.37729758 </v>
   <v>       0.83324190       0.33324190       0.37729758 </v>
   <v>       0.83324190       0.83324190       0.37729758 </v>
   <v>       0.00012997       0.00012997       0.45242342 </v>
   <v>       0.00012997       0.50012997       0.45242342 </v>
   <v>       0.50012997       0.00012997       0.45242342 </v>
   <v>       0.50012997       0.50012997       0.45242342 </v>
   <v>       0.00012997       0.24974005       0.45242342 </v>
   <v>       0.00012997       0.74974005       0.45242342 </v>
   <v>       0.50012997       0.24974005       0.45242342 </v>
   <v>       0.50012997       0.74974005       0.45242342 </v>
   <v>       0.24974005       0.00012997       0.45242342 </v>
   <v>       0.24974005       0.50012997       0.45242342 </v>
   <v>       0.74974005       0.00012997       0.45242342 </v>
   <v>       0.74974005       0.50012997       0.45242342 </v>
   <v>       0.25000000       0.25000000       0.45288750 </v>
   <v>       0.25000000       0.75000000       0.45288750 </v>
   <v>       0.75000000       0.25000000       0.45288750 </v>
   <v>       0.75000000       0.75000000       0.45288750 </v>
   <v>       0.16660598       0.16660598       0.52813907 </v>
   <v>       0.16660598       0.66660598       0.52813907 </v>
   <v>       0.66660598       0.16660598       0.52813907 </v>
   <v>       0.66660598       0.66660598       0.52813907 </v>
   <v>       0.16660598       0.41678801       0.52813907 </v>
   <v>       0.16660598       0.91678801       0.52813907 </v>
   <v>       0.66660598       0.41678801       0.52813907 </v>
   <v>       0.66660598       0.91678801       0.52813907 </v>
   <v>       0.41678801       0.16660598       0.52813907 </v>
   <v>       0.41678801       0.66660598       0.52813907 </v>
   <v>       0.91678801       0.16660598       0.52813907 </v>
   <v>       0.91678801       0.66660598       0.52813907 </v>
   <v>       0.41666666       0.41666666       0.52741939 </v>
   <v>       0.41666666       0.91666666       0.52741939 </v>
   <v>       0.91666666       0.41666666       0.52741939 </v>
   <v>       0.91666666       0.91666666       0.52741939 </v>
   <v>       0.08333333       0.08333333       0.60253339 </v>
   <v>       0.08333333       0.58333333       0.60253339 </v>
   <v>       0.58333333       0.08333333       0.60253339 </v>
   <v>       0.58333333       0.58333333       0.60253339 </v>
   <v>       0.08130935       0.33434529       0.60320464 </v>
   <v>       0.08130935       0.83434529       0.60320464 </v>
   <v>       0.58130935       0.33434529       0.60320464 </v>
   <v>       0.58130935       0.83434529       0.60320464 </v>
   <v>       0.33434529       0.08130935       0.60320464 </v>
   <v>       0.33434529       0.58130935       0.60320464 </v>
   <v>       0.83434529       0.08130935       0.60320464 </v>
   <v>       0.83434529       0.58130935       0.60320464 </v>
   <v>       0.33434529       0.33434529       0.60320464 </v>
   <v>       0.33434529       0.83434529       0.60320464 </v>
   <v>       0.83434529       0.33434529       0.60320464 </v>
   <v>       0.83434529       0.83434529       0.60320464 </v>
   <v>       0.49635262       0.49873419       0.68108137 </v>
   <v>       0.49714648       0.99714648       0.68057248 </v>
   <v>       0.99714648       0.49714648       0.68057248 </v>
   <v>       0.99714648       0.99714648       0.68057248 </v>
   <v>       0.49714648       0.25570704       0.68057248 </v>
   <v>       0.49714648       0.75570704       0.68057248 </v>
   <v>       0.99714648       0.25570704       0.68057248 </v>
   <v>       0.99714648       0.75570704       0.68057248 </v>
   <v>       0.25570704       0.49714648       0.68057248 </v>
   <v>       0.25570704       0.99714648       0.68057248 </v>
   <v>       0.75570704       0.49714648       0.68057248 </v>
   <v>       0.75570704       0.99714648       0.68057248 </v>
   <v>       0.25000000       0.25000000       0.67480871 </v>
   <v>       0.25000000       0.75000000       0.67480871 </v>
   <v>       0.75000000       0.25000000       0.67480871 </v>
   <v>       0.75000000       0.75000000       0.67480871 </v>
   <v>       0.08333333       0.08333333       0.72043888 </v>
   <v>       0.08333333       0.58333333       0.72043888 </v>
   <v>       0.58333333       0.08333333       0.72043888 </v>
   <v>       0.58333333       0.58333333       0.72043888 </v>
  </varray>
 </structure>
</modeling>
