<?xml version="1.0" encoding="ISO-8859-1"?>
<modeling>
 <generator>
  <i name="program" type="string">vasp </i>
  <i name="version" type="string">5.4.4.18Apr17-6-g9f103f2a35  </i>
  <i name="subversion" type="string">(build Feb 09 2021 16:27:36) complex            parallel </i>
  <i name="platform" type="string">IFC15_impi </i>
  <i name="date" type="string">2021 04 29 </i>
  <i name="time" type="string">03:20:16 </i>
 </generator>
 <incar>
  <i type="int" name="ISTART">     0</i>
  <i type="string" name="PREC">a</i>
  <i type="logical" name="ADDGRID"> T  </i>
  <i type="int" name="NELM">   300</i>
  <i type="int" name="NELMIN">     5</i>
  <i type="int" name="IBRION">    -1</i>
  <i name="EDIFF">      0.00000100</i>
  <i name="ENCUT">    500.00000000</i>
  <i type="logical" name="LREAL"> F  </i>
  <i type="int" name="ISMEAR">     0</i>
  <i name="SIGMA">      0.05000000</i>
  <i type="logical" name="LWAVE"> F  </i>
  <i type="logical" name="LCHARG"> F  </i>
  <v type="int" name="KPOINT_BSE">    -1     0     0     0</v>
  <i type="int" name="NELM">   300</i>
 </incar>
 <structure name="primitive_cell" >
  <crystal>
   <varray name="basis" >
    <v>      10.28518105       0.00000000       0.00000000 </v>
    <v>       5.14259052       8.90722807       0.00000000 </v>
    <v>       0.00000000       0.00000000      27.79016876 </v>
   </varray>
   <i name="volume">   2545.92553775 </i>
   <varray name="rec_basis" >
    <v>       0.09722726      -0.05613419       0.00000000 </v>
    <v>       0.00000000       0.11226837       0.00000000 </v>
    <v>       0.00000000       0.00000000       0.03598395 </v>
   </varray>
  </crystal>
  <varray name="positions" >
   <v>       0.00000000       0.00000000       0.22663990 </v>
   <v>       0.16666666      -0.08333334       0.30218653 </v>
   <v>      -0.08333334       0.16666666       0.30218653 </v>
   <v>       0.25000000       0.00000000       0.22663990 </v>
   <v>       0.00000000      -0.25000000       0.22663990 </v>
   <v>       0.25000000      -0.25000000       0.22663990 </v>
   <v>      -0.25000000       0.25000000       0.22663990 </v>
   <v>       0.00000000       0.25000000       0.22663990 </v>
   <v>      -0.25000000       0.00000000       0.22663990 </v>
   <v>      -0.08333334      -0.08333334       0.30218653 </v>
   <v>       0.16666666       0.16666666       0.30218653 </v>
   <v>       0.16666666      -0.33333334       0.30218653 </v>
   <v>      -0.33333334       0.16666666       0.30218653 </v>
   <v>       0.08333333       0.08333333       0.37716320 </v>
   <v>       0.08351614      -0.16675810       0.37729758 </v>
   <v>      -0.16675810       0.08351614       0.37729758 </v>
   <v>       0.41666666      -0.08333334       0.30218653 </v>
   <v>      -0.08333334       0.41666666       0.30218653 </v>
   <v>      -0.33333334       0.41666666       0.30218653 </v>
   <v>       0.41666666      -0.33333334       0.30218653 </v>
   <v>      -0.50000000       0.25000000       0.22663990 </v>
   <v>       0.25000000       0.25000000       0.22663990 </v>
   <v>       0.25000000      -0.50000000       0.22663990 </v>
   <v>      -0.25000000      -0.50000000       0.22663990 </v>
   <v>      -0.25000000      -0.25000000       0.22663990 </v>
   <v>      -0.50000000      -0.25000000       0.22663990 </v>
   <v>      -0.08333334      -0.33333334       0.30218653 </v>
   <v>      -0.33333334      -0.08333334       0.30218653 </v>
   <v>       0.33324190      -0.16675810       0.37729758 </v>
   <v>      -0.16675810       0.33324190       0.37729758 </v>
   <v>      -0.16675810      -0.16675810       0.37729758 </v>
   <v>       0.00000000      -0.50000000       0.22663990 </v>
   <v>      -0.50000000      -0.50000000       0.22663990 </v>
   <v>      -0.50000000       0.00000000       0.22663990 </v>
   <v>      -0.41666667       0.08333333       0.37716320 </v>
   <v>       0.08333333      -0.41666667       0.37716320 </v>
   <v>       0.33324190      -0.41648386       0.37729758 </v>
   <v>      -0.41648386       0.33324190       0.37729758 </v>
   <v>       0.33324190       0.08351614       0.37729758 </v>
   <v>       0.08351614       0.33324190       0.37729758 </v>
   <v>       0.16666666       0.41666666       0.30218653 </v>
   <v>       0.41666666       0.16666666       0.30218653 </v>
   <v>       0.41666666       0.41666666       0.30218653 </v>
   <v>       0.00012997       0.00012997       0.45242342 </v>
   <v>      -0.33333334      -0.33333334       0.30218653 </v>
   <v>       0.00012997       0.24974005       0.45242342 </v>
   <v>       0.24974005       0.00012997       0.45242342 </v>
   <v>      -0.25025995       0.00012997       0.45242342 </v>
   <v>       0.00012997      -0.25025995       0.45242342 </v>
   <v>       0.25000000      -0.25000000       0.45288750 </v>
   <v>      -0.25000000       0.25000000       0.45288750 </v>
   <v>      -0.41666667      -0.41666667       0.37716320 </v>
   <v>      -0.41648386      -0.16675810       0.37729758 </v>
   <v>      -0.16675810      -0.41648386       0.37729758 </v>
   <v>       0.33324190       0.33324190       0.37729758 </v>
   <v>       0.24974005      -0.49987003       0.45242342 </v>
   <v>      -0.49987003       0.24974005       0.45242342 </v>
   <v>      -0.49987003      -0.25025995       0.45242342 </v>
   <v>      -0.25025995      -0.49987003       0.45242342 </v>
   <v>       0.25000000       0.25000000       0.45288750 </v>
   <v>      -0.25000000      -0.25000000       0.45288750 </v>
   <v>       0.00012997      -0.49987003       0.45242342 </v>
   <v>      -0.49987003       0.00012997       0.45242342 </v>
   <v>      -0.49987003      -0.49987003       0.45242342 </v>
   <v>      -0.08333334      -0.08333334      -0.47258061 </v>
   <v>      -0.08321199       0.16660598      -0.47186093 </v>
   <v>       0.16660598      -0.08321199      -0.47186093 </v>
   <v>       0.16739984       0.16501827      -0.47236982 </v>
   <v>      -0.33339402       0.16660598      -0.47186093 </v>
   <v>       0.16660598      -0.33339402      -0.47186093 </v>
   <v>       0.41666666      -0.08333334      -0.47258061 </v>
   <v>      -0.08333334       0.41666666      -0.47258061 </v>
   <v>      -0.33339402      -0.08321199      -0.47186093 </v>
   <v>      -0.08321199      -0.33339402      -0.47186093 </v>
   <v>      -0.33339402       0.41678801      -0.47186093 </v>
   <v>       0.41678801      -0.33339402      -0.47186093 </v>
   <v>       0.41666666       0.41666666      -0.47258061 </v>
   <v>       0.16660598       0.41678801      -0.47186093 </v>
   <v>       0.41678801       0.16660598      -0.47186093 </v>
   <v>      -0.33339402      -0.33339402      -0.47186093 </v>
   <v>       0.08333333       0.08333333      -0.39746661 </v>
   <v>      -0.16565471       0.08130935      -0.39679536 </v>
   <v>       0.08130935      -0.16565471      -0.39679536 </v>
   <v>      -0.16565471      -0.16565471      -0.39679536 </v>
   <v>      -0.16565471       0.33434529      -0.39679536 </v>
   <v>       0.33434529      -0.16565471      -0.39679536 </v>
   <v>      -0.41666667       0.08333333      -0.39746661 </v>
   <v>       0.08333333      -0.41666667      -0.39746661 </v>
   <v>       0.08130935       0.33434529      -0.39679536 </v>
   <v>       0.33434529       0.08130935      -0.39679536 </v>
   <v>       0.33434529      -0.41869065      -0.39679536 </v>
   <v>      -0.41869065       0.33434529      -0.39679536 </v>
   <v>      -0.41666667      -0.41666667      -0.39746661 </v>
   <v>      -0.41869065      -0.16565471      -0.39679536 </v>
   <v>      -0.16565471      -0.41869065      -0.39679536 </v>
   <v>       0.33434529       0.33434529      -0.39679536 </v>
   <v>      -0.00285352      -0.00285352      -0.31942752 </v>
   <v>       0.25000000      -0.25000000      -0.32519129 </v>
   <v>      -0.25000000       0.25000000      -0.32519129 </v>
   <v>      -0.24429296      -0.00285352      -0.31942752 </v>
   <v>      -0.00285352      -0.24429296      -0.31942752 </v>
   <v>      -0.00285352       0.25570704      -0.31942752 </v>
   <v>       0.25570704      -0.00285352      -0.31942752 </v>
   <v>       0.25000000       0.25000000      -0.32519129 </v>
   <v>      -0.25000000      -0.25000000      -0.32519129 </v>
   <v>       0.49714648      -0.24429296      -0.31942752 </v>
   <v>      -0.24429296       0.49714648      -0.31942752 </v>
   <v>       0.25570704       0.49714648      -0.31942752 </v>
   <v>       0.49714648       0.25570704      -0.31942752 </v>
   <v>      -0.00285352       0.49714648      -0.31942752 </v>
   <v>       0.49714648      -0.00285352      -0.31942752 </v>
   <v>       0.49714648       0.49714648      -0.31942752 </v>
   <v>       0.08333333       0.08333333      -0.27956112 </v>
   <v>      -0.41666667       0.08333333      -0.27956112 </v>
   <v>       0.08333333      -0.41666667      -0.27956112 </v>
   <v>      -0.41666667      -0.41666667      -0.27956112 </v>
  </varray>
 </structure>
 <varray name="primitive_index" >
  <v type="int" >        1 </v>
  <v type="int" >       22 </v>
  <v type="int" >       27 </v>
  <v type="int" >        9 </v>
  <v type="int" >        6 </v>
  <v type="int" >       14 </v>
  <v type="int" >       15 </v>
  <v type="int" >        5 </v>
  <v type="int" >       11 </v>
  <v type="int" >       32 </v>
  <v type="int" >       17 </v>
  <v type="int" >       18 </v>
  <v type="int" >       19 </v>
  <v type="int" >       33 </v>
  <v type="int" >       38 </v>
  <v type="int" >       43 </v>
  <v type="int" >       30 </v>
  <v type="int" >       31 </v>
  <v type="int" >       23 </v>
  <v type="int" >       26 </v>
  <v type="int" >        7 </v>
  <v type="int" >       13 </v>
  <v type="int" >       10 </v>
  <v type="int" >       12 </v>
  <v type="int" >       16 </v>
  <v type="int" >        8 </v>
  <v type="int" >       28 </v>
  <v type="int" >       24 </v>
  <v type="int" >       46 </v>
  <v type="int" >       47 </v>
  <v type="int" >       48 </v>
  <v type="int" >        2 </v>
  <v type="int" >        4 </v>
  <v type="int" >        3 </v>
  <v type="int" >       35 </v>
  <v type="int" >       34 </v>
  <v type="int" >       42 </v>
  <v type="int" >       39 </v>
  <v type="int" >       41 </v>
  <v type="int" >       37 </v>
  <v type="int" >       21 </v>
  <v type="int" >       25 </v>
  <v type="int" >       29 </v>
  <v type="int" >       49 </v>
  <v type="int" >       20 </v>
  <v type="int" >       53 </v>
  <v type="int" >       57 </v>
  <v type="int" >       59 </v>
  <v type="int" >       54 </v>
  <v type="int" >       62 </v>
  <v type="int" >       63 </v>
  <v type="int" >       36 </v>
  <v type="int" >       40 </v>
  <v type="int" >       44 </v>
  <v type="int" >       45 </v>
  <v type="int" >       58 </v>
  <v type="int" >       55 </v>
  <v type="int" >       56 </v>
  <v type="int" >       60 </v>
  <v type="int" >       61 </v>
  <v type="int" >       64 </v>
  <v type="int" >       50 </v>
  <v type="int" >       51 </v>
  <v type="int" >       52 </v>
  <v type="int" >       80 </v>
  <v type="int" >       75 </v>
  <v type="int" >       70 </v>
  <v type="int" >       65 </v>
  <v type="int" >       67 </v>
  <v type="int" >       66 </v>
  <v type="int" >       78 </v>
  <v type="int" >       79 </v>
  <v type="int" >       72 </v>
  <v type="int" >       76 </v>
  <v type="int" >       71 </v>
  <v type="int" >       74 </v>
  <v type="int" >       77 </v>
  <v type="int" >       69 </v>
  <v type="int" >       73 </v>
  <v type="int" >       68 </v>
  <v type="int" >       81 </v>
  <v type="int" >       91 </v>
  <v type="int" >       86 </v>
  <v type="int" >       96 </v>
  <v type="int" >       95 </v>
  <v type="int" >       94 </v>
  <v type="int" >       83 </v>
  <v type="int" >       82 </v>
  <v type="int" >       85 </v>
  <v type="int" >       89 </v>
  <v type="int" >       90 </v>
  <v type="int" >       87 </v>
  <v type="int" >       84 </v>
  <v type="int" >       88 </v>
  <v type="int" >       92 </v>
  <v type="int" >       93 </v>
  <v type="int" >      100 </v>
  <v type="int" >      110 </v>
  <v type="int" >      111 </v>
  <v type="int" >      108 </v>
  <v type="int" >      104 </v>
  <v type="int" >      103 </v>
  <v type="int" >      106 </v>
  <v type="int" >      109 </v>
  <v type="int" >      112 </v>
  <v type="int" >      102 </v>
  <v type="int" >      107 </v>
  <v type="int" >      105 </v>
  <v type="int" >      101 </v>
  <v type="int" >       99 </v>
  <v type="int" >       98 </v>
  <v type="int" >       97 </v>
  <v type="int" >      113 </v>
  <v type="int" >      115 </v>
  <v type="int" >      114 </v>
  <v type="int" >      116 </v>
 </varray>
 <kpoints>
  <generation param="Gamma">
   <v type="int" name="divisions">       4        4        1 </v>
   <v name="usershift">      0.00000000       0.00000000       0.00000000 </v>
   <v name="genvec1">      0.25000000      -0.00000000       0.00000000 </v>
   <v name="genvec2">      0.00000000       0.25000000       0.00000000 </v>
   <v name="genvec3">      0.00000000       0.00000000       1.00000000 </v>
   <v name="shift">      0.00000000       0.00000000       0.00000000 </v>
  </generation>
  <varray name="kpointlist" >
   <v>       0.00000000       0.00000000       0.00000000 </v>
   <v>       0.25000000      -0.00000000       0.00000000 </v>
   <v>       0.50000000      -0.00000000       0.00000000 </v>
   <v>       0.00000000       0.25000000       0.00000000 </v>
   <v>       0.25000000       0.25000000       0.00000000 </v>
   <v>       0.50000000       0.25000000       0.00000000 </v>
   <v>      -0.25000000       0.25000000       0.00000000 </v>
   <v>       0.00000000       0.50000000       0.00000000 </v>
   <v>       0.25000000       0.50000000       0.00000000 </v>
   <v>       0.50000000       0.50000000       0.00000000 </v>
  </varray>
  <varray name="weights" >
   <v>       0.06250000 </v>
   <v>       0.12500000 </v>
   <v>       0.06250000 </v>
   <v>       0.12500000 </v>
   <v>       0.12500000 </v>
   <v>       0.12500000 </v>
   <v>       0.12500000 </v>
   <v>       0.06250000 </v>
   <v>       0.12500000 </v>
   <v>       0.06250000 </v>
  </varray>
 </kpoints>
 <parameters>
  <separator name="general" >
   <i type="string" name="SYSTEM">unknown system</i>
   <i type="logical" name="LCOMPAT"> F  </i>
  </separator>
  <separator name="electronic" >
   <i type="string" name="PREC">a</i>
   <i name="ENMAX">    500.00000000</i>
   <i name="ENAUG">    605.39200000</i>
   <i name="EDIFF">      0.00000100</i>
   <i type="int" name="IALGO">    38</i>
   <i type="int" name="IWAVPR">    10</i>
   <i type="int" name="NBANDS">   756</i>
   <i name="NELECT">   1256.00000000</i>
   <i type="int" name="TURBO">     0</i>
   <i type="int" name="IRESTART">     0</i>
   <i type="int" name="NREBOOT">     0</i>
   <i type="int" name="NMIN">     0</i>
   <i name="EREF">      0.00000000</i>
   <separator name="electronic smearing" >
    <i type="int" name="ISMEAR">     0</i>
    <i name="SIGMA">      0.05000000</i>
    <i name="KSPACING">      0.50000000</i>
    <i type="logical" name="KGAMMA"> T  </i>
   </separator>
   <separator name="electronic projectors" >
    <i type="logical" name="LREAL"> F  </i>
    <v name="ROPT">      0.00000000      0.00000000</v>
    <i type="int" name="LMAXPAW">  -100</i>
    <i type="int" name="LMAXMIX">     2</i>
    <i type="logical" name="NLSPLINE"> F  </i>
   </separator>
   <separator name="electronic startup" >
    <i type="int" name="ISTART">     0</i>
    <i type="int" name="ICHARG">     2</i>
    <i type="int" name="INIWAV">     1</i>
   </separator>
   <separator name="electronic spin" >
    <i type="int" name="ISPIN">     1</i>
    <i type="logical" name="LNONCOLLINEAR"> F  </i>
    <v name="MAGMOM">      1.00000000      1.00000000      1.00000000      1.00000000      1.00000000      1.00000000      1.00000000      1.00000000      1.00000000      1.00000000      1.00000000      1.00000000      1.00000000      1.00000000      1.00000000      1.00000000      1.00000000      1.00000000      1.00000000      1.00000000
      1.00000000      1.00000000      1.00000000      1.00000000      1.00000000      1.00000000      1.00000000      1.00000000      1.00000000      1.00000000      1.00000000      1.00000000      1.00000000      1.00000000      1.00000000      1.00000000      1.00000000      1.00000000      1.00000000      1.00000000
      1.00000000      1.00000000      1.00000000      1.00000000      1.00000000      1.00000000      1.00000000      1.00000000      1.00000000      1.00000000      1.00000000      1.00000000      1.00000000      1.00000000      1.00000000      1.00000000      1.00000000      1.00000000      1.00000000      1.00000000
      1.00000000      1.00000000      1.00000000      1.00000000      1.00000000      1.00000000      1.00000000      1.00000000      1.00000000      1.00000000      1.00000000      1.00000000      1.00000000      1.00000000      1.00000000      1.00000000      1.00000000      1.00000000      1.00000000      1.00000000
      1.00000000      1.00000000      1.00000000      1.00000000      1.00000000      1.00000000      1.00000000      1.00000000      1.00000000      1.00000000      1.00000000      1.00000000      1.00000000      1.00000000      1.00000000      1.00000000      1.00000000      1.00000000      1.00000000      1.00000000
      1.00000000      1.00000000      1.00000000      1.00000000      1.00000000      1.00000000      1.00000000      1.00000000      1.00000000      1.00000000      1.00000000      1.00000000      1.00000000      1.00000000      1.00000000      1.00000000</v>
    <i name="NUPDOWN">     -1.00000000</i>
    <i type="logical" name="LSORBIT"> F  </i>
    <v name="SAXIS">      0.00000000      0.00000000      1.00000000</v>
    <i type="logical" name="LSPIRAL"> F  </i>
    <v name="QSPIRAL">      0.00000000      0.00000000      0.00000000</v>
    <i type="logical" name="LZEROZ"> F  </i>
   </separator>
   <separator name="electronic exchange-correlation" >
    <i type="logical" name="LASPH"> F  </i>
    <i type="logical" name="LMETAGGA"> F  </i>
   </separator>
   <separator name="electronic convergence" >
    <i type="int" name="NELM">   300</i>
    <i type="int" name="NELMDL">    -5</i>
    <i type="int" name="NELMIN">     5</i>
    <i name="ENINI">    500.00000000</i>
    <separator name="electronic convergence detail" >
     <i type="logical" name="LDIAG"> T  </i>
     <i type="logical" name="LSUBROT"> F  </i>
     <i name="WEIMIN">      0.00000000</i>
     <i name="EBREAK">      0.00000000</i>
     <i name="DEPER">      0.30000000</i>
     <i type="int" name="NRMM">     4</i>
     <i name="TIME">      0.40000000</i>
    </separator>
   </separator>
   <separator name="electronic mixer" >
    <i name="AMIX">      0.40000000</i>
    <i name="BMIX">      1.00000000</i>
    <i name="AMIN">      0.10000000</i>
    <i name="AMIX_MAG">      1.60000000</i>
    <i name="BMIX_MAG">      1.00000000</i>
    <separator name="electronic mixer details" >
     <i type="int" name="IMIX">     4</i>
     <i type="logical" name="MIXFIRST"> F  </i>
     <i type="int" name="MAXMIX">   -45</i>
     <i name="WC">    100.00000000</i>
     <i type="int" name="INIMIX">     1</i>
     <i type="int" name="MIXPRE">     1</i>
     <i type="int" name="MREMOVE">     5</i>
    </separator>
   </separator>
   <separator name="electronic dipolcorrection" >
    <i type="logical" name="LDIPOL"> F  </i>
    <i type="logical" name="LMONO"> F  </i>
    <i type="int" name="IDIPOL">     0</i>
    <i name="EPSILON">      1.00000000</i>
    <v name="DIPOL">   -100.00000000   -100.00000000   -100.00000000</v>
    <i name="EFIELD">      0.00000000</i>
   </separator>
  </separator>
  <separator name="grids" >
   <i type="int" name="NGX">    80</i>
   <i type="int" name="NGY">    80</i>
   <i type="int" name="NGZ">   210</i>
   <i type="int" name="NGXF">   160</i>
   <i type="int" name="NGYF">   160</i>
   <i type="int" name="NGZF">   420</i>
   <i type="logical" name="ADDGRID"> T  </i>
  </separator>
  <separator name="ionic" >
   <i type="int" name="NSW">     0</i>
   <i type="int" name="IBRION">    -1</i>
   <i type="int" name="MDALGO">     0</i>
   <i type="int" name="ISIF">     2</i>
   <i name="PSTRESS">      0.00000000</i>
   <i name="EDIFFG">      0.00001000</i>
   <i type="int" name="NFREE">     0</i>
   <i name="POTIM">      0.50000000</i>
   <i name="SMASS">     -3.00000000</i>
   <i name="SCALEE">      1.00000000</i>
  </separator>
  <separator name="ionic md" >
   <i name="TEBEG">      0.00010000</i>
   <i name="TEEND">      0.00010000</i>
   <i type="int" name="NBLOCK">     1</i>
   <i type="int" name="KBLOCK">     1</i>
   <i type="int" name="NPACO">   256</i>
   <i name="APACO">     16.00000000</i>
  </separator>
  <separator name="symmetry" >
   <i type="int" name="ISYM">     2</i>
   <i name="SYMPREC">      0.00001000</i>
  </separator>
  <separator name="dos" >
   <i type="int" name="LORBIT">     0</i>
   <v name="RWIGS">     -1.00000000     -1.00000000</v>
   <i type="int" name="NEDOS">   301</i>
   <i name="EMIN">     10.00000000</i>
   <i name="EMAX">    -10.00000000</i>
   <i name="EFERMI">      0.00000000</i>
  </separator>
  <separator name="writing" >
   <i type="int" name="NWRITE">     2</i>
   <i type="logical" name="LWAVE"> F  </i>
   <i type="logical" name="LDOWNSAMPLE"> F  </i>
   <i type="logical" name="LCHARG"> F  </i>
   <i type="logical" name="LPARD"> F  </i>
   <i type="logical" name="LVTOT"> F  </i>
   <i type="logical" name="LVHAR"> F  </i>
   <i type="logical" name="LELF"> F  </i>
   <i type="logical" name="LOPTICS"> F  </i>
   <v name="STM">      0.00000000      0.00000000      0.00000000      0.00000000      0.00000000      0.00000000      0.00000000</v>
  </separator>
  <separator name="performance" >
   <i type="int" name="NPAR">     4</i>
   <i type="int" name="NSIM">     4</i>
   <i type="int" name="NBLK">    -1</i>
   <i type="logical" name="LPLANE"> T  </i>
   <i type="logical" name="LSCALAPACK"> F  </i>
   <i type="logical" name="LSCAAWARE"> F  </i>
   <i type="logical" name="LSCALU"> F  </i>
   <i type="logical" name="LASYNC"> F  </i>
   <i type="logical" name="LORBITALREAL"> F  </i>
  </separator>
  <separator name="miscellaneous" >
   <i type="int" name="IDIOT">     3</i>
   <i type="int" name="ISPECIAL">     0</i>
   <i type="logical" name="LMUSIC"> F  </i>
   <v name="POMASS">     63.54600000     16.00000000</v>
   <v name="DARWINR">      0.00000000      0.00000000</v>
   <v name="DARWINV">      1.00000000      1.00000000</v>
   <i type="logical" name="LCORR"> T  </i>
  </separator>
  <i type="logical" name="GGA_COMPAT"> T  </i>
  <i type="logical" name="LBERRY"> F  </i>
  <i type="int" name="ICORELEVEL">     0</i>
  <i type="logical" name="LDAU"> F  </i>
  <i type="int" name="I_CONSTRAINED_M">     0</i>
  <separator name="electronic exchange-correlation" >
   <i type="string" name="GGA">--</i>
   <i type="int" name="VOSKOWN">     0</i>
   <i type="logical" name="LHFCALC"> F  </i>
   <i type="string" name="PRECFOCK"></i>
   <i type="logical" name="LSYMGRAD"> F  </i>
   <i type="logical" name="LHFONE"> F  </i>
   <i type="logical" name="LRHFCALC"> F  </i>
   <i type="logical" name="LTHOMAS"> F  </i>
   <i type="logical" name="LMODELHF"> F  </i>
   <i name="ENCUT4O">     -1.00000000</i>
   <i type="int" name="EXXOEP">     0</i>
   <i type="int" name="FOURORBIT">     0</i>
   <i name="AEXX">      0.00000000</i>
   <i name="HFALPHA">      0.00000000</i>
   <i name="MCALPHA">      0.00000000</i>
   <i name="ALDAX">      1.00000000</i>
   <i name="AGGAX">      1.00000000</i>
   <i name="ALDAC">      1.00000000</i>
   <i name="AGGAC">      1.00000000</i>
   <i type="int" name="NKREDX">     1</i>
   <i type="int" name="NKREDY">     1</i>
   <i type="int" name="NKREDZ">     1</i>
   <i type="logical" name="SHIFTRED"> F  </i>
   <i type="logical" name="ODDONLY"> F  </i>
   <i type="logical" name="EVENONLY"> F  </i>
   <i type="int" name="LMAXFOCK">     0</i>
   <i type="int" name="NMAXFOCKAE">     0</i>
   <i type="logical" name="LFOCKAEDFT"> F  </i>
   <i name="HFSCREEN">      0.00000000</i>
   <i name="HFSCREENC">      0.00000000</i>
   <i type="int" name="NBANDSGWLOW">     0</i>
  </separator>
  <separator name="vdW DFT" >
   <i type="logical" name="LUSE_VDW"> F  </i>
   <i name="Zab_VDW">     -0.84910000</i>
   <i name="PARAM1">      0.12340000</i>
   <i name="PARAM2">      1.00000000</i>
   <i name="PARAM3">      0.00000000</i>
  </separator>
  <separator name="model GW" >
   <i type="int" name="MODEL_GW">     0</i>
   <i name="MODEL_EPS0">     13.16858037</i>
   <i name="MODEL_ALPHA">      1.00000000</i>
  </separator>
  <separator name="linear response parameters" >
   <i type="logical" name="LEPSILON"> F  </i>
   <i type="logical" name="LRPA"> F  </i>
   <i type="logical" name="LNABLA"> F  </i>
   <i type="logical" name="LVEL"> F  </i>
   <i type="int" name="KINTER">     0</i>
   <i name="CSHIFT">      0.10000000</i>
   <i name="OMEGAMAX">     -1.00000000</i>
   <i name="DEG_THRESHOLD">      0.00200000</i>
   <i name="RTIME">     -0.10000000</i>
   <i name="WPLASMAI">      0.00000000</i>
   <v name="DFIELD">      0.00000000      0.00000000      0.00000000</v>
   <v name="WPLASMA">      0.00000000      0.00000000      0.00000000      0.00000000      0.00000000      0.00000000      0.00000000      0.00000000      0.00000000</v>
  </separator>
  <separator name="orbital magnetization" >
   <i type="logical" name="NUCIND"> F  </i>
   <v name="MAGPOS">      0.00000000      0.00000000      0.00000000</v>
   <i type="logical" name="LNICSALL"> T  </i>
   <i type="logical" name="ORBITALMAG"> F  </i>
   <i type="logical" name="LMAGBLOCH"> F  </i>
   <i type="logical" name="LCHIMAG"> F  </i>
   <i type="logical" name="LGAUGE"> T  </i>
   <i type="int" name="MAGATOM">     0</i>
   <v name="MAGDIPOL">      0.00000000      0.00000000      0.00000000</v>
   <v name="AVECCONST">      0.00000000      0.00000000      0.00000000</v>
  </separator>
  <separator name="response functions" >
   <i type="logical" name="LADDER"> F  </i>
   <i type="logical" name="LRPAFORCE"> F  </i>
   <i type="logical" name="LFXC"> F  </i>
   <i type="logical" name="LHARTREE"> T  </i>
   <i type="int" name="IBSE">     0</i>
   <v type="int" name="KPOINT">    -1     0     0     0</v>
   <i type="logical" name="LTCTE"> F  </i>
   <i type="logical" name="LTETE"> F  </i>
   <i type="logical" name="LTRIPLET"> F  </i>
   <i type="logical" name="LFXCEPS"> F  </i>
   <i type="logical" name="LFXHEG"> F  </i>
   <i type="int" name="NATURALO">     2</i>
   <i type="logical" name="L2ORDER"> F  </i>
   <i type="logical" name="LMP2LT"> F  </i>
   <i type="logical" name="LUSEW"> F  </i>
   <i name="ENCUTGW">     -2.00000000</i>
   <i name="ENCUTGWSOFT">     -2.00000000</i>
   <i name="ENCUTLF">     -1.00000000</i>
   <i type="int" name="LMAXMP2">    -1</i>
   <i name="SCISSOR">      0.00000000</i>
   <i type="int" name="NOMEGA">     0</i>
   <i type="int" name="NOMEGAR">     0</i>
   <i type="int" name="NBANDSGW">    -1</i>
   <i type="int" name="NBANDSO">    -1</i>
   <i type="int" name="NBANDSV">    -1</i>
   <i type="int" name="NELM">   300</i>
   <i type="int" name="NELMHF">     1</i>
   <i type="int" name="DIM">     3</i>
   <i type="int" name="ANTIRES">     0</i>
   <i name="OMEGAMAX">    -30.00000000</i>
   <i name="OMEGAMIN">    -30.00000000</i>
   <i name="OMEGATL">   -200.00000000</i>
   <i type="int" name="OMEGAGRID">   140</i>
   <i name="CSHIFT">     -0.10000000</i>
   <i type="logical" name="SELFENERGY"> F  </i>
   <i type="logical" name="LSPECTRAL"> F  </i>
   <i type="logical" name="LSPECTRALGW"> F  </i>
   <i type="logical" name="LSINGLES"> F  </i>
   <i type="logical" name="LFERMIGW"> F  </i>
   <i type="logical" name="ODDONLYGW"> F  </i>
   <i type="logical" name="EVENONLYGW"> F  </i>
   <i type="int" name="NKREDLFX">     1</i>
   <i type="int" name="NKREDLFY">     1</i>
   <i type="int" name="NKREDLFZ">     1</i>
   <i type="int" name="MAXMEM">  2800</i>
   <i type="int" name="TELESCOPE">     0</i>
   <i type="int" name="TAUPAR">     1</i>
   <i type="int" name="OMEGAPAR">    -1</i>
   <i name="LAMBDA">      1.00000000</i>
  </separator>
  <separator name="External order field" >
   <i name="OFIELD_KAPPA">      0.00000000</i>
   <v name="OFIELD_K">      0.00000000      0.00000000      0.00000000</v>
   <i name="OFIELD_Q6_NEAR">      0.00000000</i>
   <i name="OFIELD_Q6_FAR">      0.00000000</i>
   <i name="OFIELD_A">      0.00000000</i>
  </separator>
 </parameters>
 <atominfo>
  <atoms>     116 </atoms>
  <types>       2 </types>
  <array name="atoms" >
   <dimension dim="1">ion</dimension>
   <field type="string">element</field>
   <field type="int">atomtype</field>
   <set>
    <rc><c>Cu</c><c>   1</c></rc>
    <rc><c>Cu</c><c>   1</c></rc>
    <rc><c>Cu</c><c>   1</c></rc>
    <rc><c>Cu</c><c>   1</c></rc>
    <rc><c>Cu</c><c>   1</c></rc>
    <rc><c>Cu</c><c>   1</c></rc>
    <rc><c>Cu</c><c>   1</c></rc>
    <rc><c>Cu</c><c>   1</c></rc>
    <rc><c>Cu</c><c>   1</c></rc>
    <rc><c>Cu</c><c>   1</c></rc>
    <rc><c>Cu</c><c>   1</c></rc>
    <rc><c>Cu</c><c>   1</c></rc>
    <rc><c>Cu</c><c>   1</c></rc>
    <rc><c>Cu</c><c>   1</c></rc>
    <rc><c>Cu</c><c>   1</c></rc>
    <rc><c>Cu</c><c>   1</c></rc>
    <rc><c>Cu</c><c>   1</c></rc>
    <rc><c>Cu</c><c>   1</c></rc>
    <rc><c>Cu</c><c>   1</c></rc>
    <rc><c>Cu</c><c>   1</c></rc>
    <rc><c>Cu</c><c>   1</c></rc>
    <rc><c>Cu</c><c>   1</c></rc>
    <rc><c>Cu</c><c>   1</c></rc>
    <rc><c>Cu</c><c>   1</c></rc>
    <rc><c>Cu</c><c>   1</c></rc>
    <rc><c>Cu</c><c>   1</c></rc>
    <rc><c>Cu</c><c>   1</c></rc>
    <rc><c>Cu</c><c>   1</c></rc>
    <rc><c>Cu</c><c>   1</c></rc>
    <rc><c>Cu</c><c>   1</c></rc>
    <rc><c>Cu</c><c>   1</c></rc>
    <rc><c>Cu</c><c>   1</c></rc>
    <rc><c>Cu</c><c>   1</c></rc>
    <rc><c>Cu</c><c>   1</c></rc>
    <rc><c>Cu</c><c>   1</c></rc>
    <rc><c>Cu</c><c>   1</c></rc>
    <rc><c>Cu</c><c>   1</c></rc>
    <rc><c>Cu</c><c>   1</c></rc>
    <rc><c>Cu</c><c>   1</c></rc>
    <rc><c>Cu</c><c>   1</c></rc>
    <rc><c>Cu</c><c>   1</c></rc>
    <rc><c>Cu</c><c>   1</c></rc>
    <rc><c>Cu</c><c>   1</c></rc>
    <rc><c>Cu</c><c>   1</c></rc>
    <rc><c>Cu</c><c>   1</c></rc>
    <rc><c>Cu</c><c>   1</c></rc>
    <rc><c>Cu</c><c>   1</c></rc>
    <rc><c>Cu</c><c>   1</c></rc>
    <rc><c>Cu</c><c>   1</c></rc>
    <rc><c>Cu</c><c>   1</c></rc>
    <rc><c>Cu</c><c>   1</c></rc>
    <rc><c>Cu</c><c>   1</c></rc>
    <rc><c>Cu</c><c>   1</c></rc>
    <rc><c>Cu</c><c>   1</c></rc>
    <rc><c>Cu</c><c>   1</c></rc>
    <rc><c>Cu</c><c>   1</c></rc>
    <rc><c>Cu</c><c>   1</c></rc>
    <rc><c>Cu</c><c>   1</c></rc>
    <rc><c>Cu</c><c>   1</c></rc>
    <rc><c>Cu</c><c>   1</c></rc>
    <rc><c>Cu</c><c>   1</c></rc>
    <rc><c>Cu</c><c>   1</c></rc>
    <rc><c>Cu</c><c>   1</c></rc>
    <rc><c>Cu</c><c>   1</c></rc>
    <rc><c>Cu</c><c>   1</c></rc>
    <rc><c>Cu</c><c>   1</c></rc>
    <rc><c>Cu</c><c>   1</c></rc>
    <rc><c>Cu</c><c>   1</c></rc>
    <rc><c>Cu</c><c>   1</c></rc>
    <rc><c>Cu</c><c>   1</c></rc>
    <rc><c>Cu</c><c>   1</c></rc>
    <rc><c>Cu</c><c>   1</c></rc>
    <rc><c>Cu</c><c>   1</c></rc>
    <rc><c>Cu</c><c>   1</c></rc>
    <rc><c>Cu</c><c>   1</c></rc>
    <rc><c>Cu</c><c>   1</c></rc>
    <rc><c>Cu</c><c>   1</c></rc>
    <rc><c>Cu</c><c>   1</c></rc>
    <rc><c>Cu</c><c>   1</c></rc>
    <rc><c>Cu</c><c>   1</c></rc>
    <rc><c>Cu</c><c>   1</c></rc>
    <rc><c>Cu</c><c>   1</c></rc>
    <rc><c>Cu</c><c>   1</c></rc>
    <rc><c>Cu</c><c>   1</c></rc>
    <rc><c>Cu</c><c>   1</c></rc>
    <rc><c>Cu</c><c>   1</c></rc>
    <rc><c>Cu</c><c>   1</c></rc>
    <rc><c>Cu</c><c>   1</c></rc>
    <rc><c>Cu</c><c>   1</c></rc>
    <rc><c>Cu</c><c>   1</c></rc>
    <rc><c>Cu</c><c>   1</c></rc>
    <rc><c>Cu</c><c>   1</c></rc>
    <rc><c>Cu</c><c>   1</c></rc>
    <rc><c>Cu</c><c>   1</c></rc>
    <rc><c>Cu</c><c>   1</c></rc>
    <rc><c>Cu</c><c>   1</c></rc>
    <rc><c>Cu</c><c>   1</c></rc>
    <rc><c>Cu</c><c>   1</c></rc>
    <rc><c>Cu</c><c>   1</c></rc>
    <rc><c>Cu</c><c>   1</c></rc>
    <rc><c>Cu</c><c>   1</c></rc>
    <rc><c>Cu</c><c>   1</c></rc>
    <rc><c>Cu</c><c>   1</c></rc>
    <rc><c>Cu</c><c>   1</c></rc>
    <rc><c>Cu</c><c>   1</c></rc>
    <rc><c>Cu</c><c>   1</c></rc>
    <rc><c>Cu</c><c>   1</c></rc>
    <rc><c>Cu</c><c>   1</c></rc>
    <rc><c>Cu</c><c>   1</c></rc>
    <rc><c>Cu</c><c>   1</c></rc>
    <rc><c>Cu</c><c>   1</c></rc>
    <rc><c>Cu</c><c>   1</c></rc>
    <rc><c>O </c><c>   2</c></rc>
    <rc><c>O </c><c>   2</c></rc>
    <rc><c>O </c><c>   2</c></rc>
    <rc><c>O </c><c>   2</c></rc>
   </set>
  </array>
  <array name="atomtypes" >
   <dimension dim="1">type</dimension>
   <field type="int">atomspertype</field>
   <field type="string">element</field>
   <field>mass</field>
   <field>valence</field>
   <field type="string">pseudopotential</field>
   <set>
    <rc><c> 112</c><c>Cu</c><c>     63.54600000</c><c>     11.00000000</c><c> PAW_PBE Cu 05Jan2001                   </c></rc>
    <rc><c>   4</c><c>O </c><c>     16.00000000</c><c>      6.00000000</c><c> PAW_PBE O 08Apr2002                    </c></rc>
   </set>
  </array>
 </atominfo>
 <structure name="initialpos" >
  <crystal>
   <varray name="basis" >
    <v>      10.28518105       0.00000000       0.00000000 </v>
    <v>       5.14259052       8.90722807       0.00000000 </v>
    <v>       0.00000000       0.00000000      27.79016876 </v>
   </varray>
   <i name="volume">   2545.92553775 </i>
   <varray name="rec_basis" >
    <v>       0.09722726      -0.05613419       0.00000000 </v>
    <v>       0.00000000       0.11226837       0.00000000 </v>
    <v>       0.00000000       0.00000000       0.03598395 </v>
   </varray>
  </crystal>
  <varray name="positions" >
   <v>       0.00000000       0.00000000       0.22663990 </v>
   <v>       0.00000000       0.50000000       0.22663990 </v>
   <v>       0.50000000       0.00000000       0.22663990 </v>
   <v>       0.50000000       0.50000000       0.22663990 </v>
   <v>       0.00000000       0.25000000       0.22663990 </v>
   <v>       0.00000000       0.75000000       0.22663990 </v>
   <v>       0.50000000       0.25000000       0.22663990 </v>
   <v>       0.50000000       0.75000000       0.22663990 </v>
   <v>       0.25000000       0.00000000       0.22663990 </v>
   <v>       0.25000000       0.50000000       0.22663990 </v>
   <v>       0.75000000       0.00000000       0.22663990 </v>
   <v>       0.75000000       0.50000000       0.22663990 </v>
   <v>       0.25000000       0.25000000       0.22663990 </v>
   <v>       0.25000000       0.75000000       0.22663990 </v>
   <v>       0.75000000       0.25000000       0.22663990 </v>
   <v>       0.75000000       0.75000000       0.22663990 </v>
   <v>       0.16666666       0.16666666       0.30218653 </v>
   <v>       0.16666666       0.66666666       0.30218653 </v>
   <v>       0.66666666       0.16666666       0.30218653 </v>
   <v>       0.66666666       0.66666666       0.30218653 </v>
   <v>       0.16666666       0.41666666       0.30218653 </v>
   <v>       0.16666666       0.91666666       0.30218653 </v>
   <v>       0.66666666       0.41666666       0.30218653 </v>
   <v>       0.66666666       0.91666666       0.30218653 </v>
   <v>       0.41666666       0.16666666       0.30218653 </v>
   <v>       0.41666666       0.66666666       0.30218653 </v>
   <v>       0.91666666       0.16666666       0.30218653 </v>
   <v>       0.91666666       0.66666666       0.30218653 </v>
   <v>       0.41666666       0.41666666       0.30218653 </v>
   <v>       0.41666666       0.91666666       0.30218653 </v>
   <v>       0.91666666       0.41666666       0.30218653 </v>
   <v>       0.91666666       0.91666666       0.30218653 </v>
   <v>       0.08333333       0.08333333       0.37716320 </v>
   <v>       0.08333333       0.58333333       0.37716320 </v>
   <v>       0.58333333       0.08333333       0.37716320 </v>
   <v>       0.58333333       0.58333333       0.37716320 </v>
   <v>       0.08351614       0.33324190       0.37729758 </v>
   <v>       0.08351614       0.83324190       0.37729758 </v>
   <v>       0.58351614       0.33324190       0.37729758 </v>
   <v>       0.58351614       0.83324190       0.37729758 </v>
   <v>       0.33324190       0.08351614       0.37729758 </v>
   <v>       0.33324190       0.58351614       0.37729758 </v>
   <v>       0.83324190       0.08351614       0.37729758 </v>
   <v>       0.83324190       0.58351614       0.37729758 </v>
   <v>       0.33324190       0.33324190       0.37729758 </v>
   <v>       0.33324190       0.83324190       0.37729758 </v>
   <v>       0.83324190       0.33324190       0.37729758 </v>
   <v>       0.83324190       0.83324190       0.37729758 </v>
   <v>       0.00012997       0.00012997       0.45242342 </v>
   <v>       0.00012997       0.50012997       0.45242342 </v>
   <v>       0.50012997       0.00012997       0.45242342 </v>
   <v>       0.50012997       0.50012997       0.45242342 </v>
   <v>       0.00012997       0.24974005       0.45242342 </v>
   <v>       0.00012997       0.74974005       0.45242342 </v>
   <v>       0.50012997       0.24974005       0.45242342 </v>
   <v>       0.50012997       0.74974005       0.45242342 </v>
   <v>       0.24974005       0.00012997       0.45242342 </v>
   <v>       0.24974005       0.50012997       0.45242342 </v>
   <v>       0.74974005       0.00012997       0.45242342 </v>
   <v>       0.74974005       0.50012997       0.45242342 </v>
   <v>       0.25000000       0.25000000       0.45288750 </v>
   <v>       0.25000000       0.75000000       0.45288750 </v>
   <v>       0.75000000       0.25000000       0.45288750 </v>
   <v>       0.75000000       0.75000000       0.45288750 </v>
   <v>       0.16739984       0.16501827       0.52763018 </v>
   <v>       0.16660598       0.66660598       0.52813907 </v>
   <v>       0.66660598       0.16660598       0.52813907 </v>
   <v>       0.66660598       0.66660598       0.52813907 </v>
   <v>       0.16660598       0.41678801       0.52813907 </v>
   <v>       0.16660598       0.91678801       0.52813907 </v>
   <v>       0.66660598       0.41678801       0.52813907 </v>
   <v>       0.66660598       0.91678801       0.52813907 </v>
   <v>       0.41678801       0.16660598       0.52813907 </v>
   <v>       0.41678801       0.66660598       0.52813907 </v>
   <v>       0.91678801       0.16660598       0.52813907 </v>
   <v>       0.91678801       0.66660598       0.52813907 </v>
   <v>       0.41666666       0.41666666       0.52741939 </v>
   <v>       0.41666666       0.91666666       0.52741939 </v>
   <v>       0.91666666       0.41666666       0.52741939 </v>
   <v>       0.91666666       0.91666666       0.52741939 </v>
   <v>       0.08333333       0.08333333       0.60253339 </v>
   <v>       0.08333333       0.58333333       0.60253339 </v>
   <v>       0.58333333       0.08333333       0.60253339 </v>
   <v>       0.58333333       0.58333333       0.60253339 </v>
   <v>       0.08130935       0.33434529       0.60320464 </v>
   <v>       0.08130935       0.83434529       0.60320464 </v>
   <v>       0.58130935       0.33434529       0.60320464 </v>
   <v>       0.58130935       0.83434529       0.60320464 </v>
   <v>       0.33434529       0.08130935       0.60320464 </v>
   <v>       0.33434529       0.58130935       0.60320464 </v>
   <v>       0.83434529       0.08130935       0.60320464 </v>
   <v>       0.83434529       0.58130935       0.60320464 </v>
   <v>       0.33434529       0.33434529       0.60320464 </v>
   <v>       0.33434529       0.83434529       0.60320464 </v>
   <v>       0.83434529       0.33434529       0.60320464 </v>
   <v>       0.83434529       0.83434529       0.60320464 </v>
   <v>       0.49714648       0.49714648       0.68057248 </v>
   <v>       0.49714648       0.99714648       0.68057248 </v>
   <v>       0.99714648       0.49714648       0.68057248 </v>
   <v>       0.99714648       0.99714648       0.68057248 </v>
   <v>       0.49714648       0.25570704       0.68057248 </v>
   <v>       0.49714648       0.75570704       0.68057248 </v>
   <v>       0.99714648       0.25570704       0.68057248 </v>
   <v>       0.99714648       0.75570704       0.68057248 </v>
   <v>       0.25570704       0.49714648       0.68057248 </v>
   <v>       0.25570704       0.99714648       0.68057248 </v>
   <v>       0.75570704       0.49714648       0.68057248 </v>
   <v>       0.75570704       0.99714648       0.68057248 </v>
   <v>       0.25000000       0.25000000       0.67480871 </v>
   <v>       0.25000000       0.75000000       0.67480871 </v>
   <v>       0.75000000       0.25000000       0.67480871 </v>
   <v>       0.75000000       0.75000000       0.67480871 </v>
   <v>       0.08333333       0.08333333       0.72043888 </v>
   <v>       0.08333333       0.58333333       0.72043888 </v>
   <v>       0.58333333       0.08333333       0.72043888 </v>
   <v>       0.58333333       0.58333333       0.72043888 </v>
  </varray>
 </structure>
 <calculation>
  <scstep>
   <time name="dav">  166.16  166.41</time>
   <time name="total">  166.75  167.02</time>
   <energy>
    <i name="alphaZ">   6463.29446255 </i>
    <i name="ewald"> 664607.01392069 </i>
    <i name="hartreedc">-815361.90579952 </i>
    <i name="XCdc">   5009.43434103 </i>
    <i name="pawpsdc"> 122173.85035501 </i>
    <i name="pawaedc">-138312.01710912 </i>
    <i name="eentropy">     -0.02813925 </i>
    <i name="bandstr">   8852.64218800 </i>
    <i name="atom"> 157518.83071590 </i>
    <i name="e_fr_energy">  10951.11493529 </i>
    <i name="e_wo_entrp">  10951.14307454 </i>
    <i name="e_0_energy">  10951.12900491 </i>
   </energy>
  </scstep>
  <scstep>
   <time name="dav">  167.18  167.40</time>
   <time name="total">  167.21  167.43</time>
   <energy>
    <i name="e_fr_energy">   1074.07555501 </i>
    <i name="e_wo_entrp">   1074.11962468 </i>
    <i name="e_0_energy">   1074.09758985 </i>
   </energy>
  </scstep>
  <scstep>
   <time name="dav">  172.05  172.30</time>
   <time name="total">  172.07  172.33</time>
   <energy>
    <i name="e_fr_energy">   -373.62008553 </i>
    <i name="e_wo_entrp">   -373.55488908 </i>
    <i name="e_0_energy">   -373.58748730 </i>
   </energy>
  </scstep>
  <scstep>
   <time name="dav">  176.40  176.64</time>
   <time name="total">  176.42  176.66</time>
   <energy>
    <i name="e_fr_energy">   -524.82445189 </i>
    <i name="e_wo_entrp">   -524.76117053 </i>
    <i name="e_0_energy">   -524.79281121 </i>
   </energy>
  </scstep>
  <scstep>
   <time name="dav">  164.92  165.14</time>
   <time name="total">  171.34  171.58</time>
   <energy>
    <i name="e_fr_energy">   -530.86812806 </i>
    <i name="e_wo_entrp">   -530.80485572 </i>
    <i name="e_0_energy">   -530.83649189 </i>
   </energy>
  </scstep>
  <scstep>
   <time name="dav">  173.16  173.39</time>
   <time name="total">  179.94  180.22</time>
   <energy>
    <i name="e_fr_energy">   -478.08748297 </i>
    <i name="e_wo_entrp">   -478.03113467 </i>
    <i name="e_0_energy">   -478.05930882 </i>
   </energy>
  </scstep>
  <scstep>
   <time name="dav">  181.24  181.51</time>
   <time name="total">  186.28  186.56</time>
   <energy>
    <i name="e_fr_energy">   -511.28577687 </i>
    <i name="e_wo_entrp">   -511.16395270 </i>
    <i name="e_0_energy">   -511.22486478 </i>
   </energy>
  </scstep>
  <scstep>
   <time name="dav">  205.72  206.10</time>
   <time name="total">  210.70  211.12</time>
   <energy>
    <i name="e_fr_energy">   -444.87114461 </i>
    <i name="e_wo_entrp">   -444.78728088 </i>
    <i name="e_0_energy">   -444.82921274 </i>
   </energy>
  </scstep>
  <scstep>
   <time name="dav">  204.91  205.20</time>
   <time name="total">  211.65  211.95</time>
   <energy>
    <i name="e_fr_energy">   -428.51877357 </i>
    <i name="e_wo_entrp">   -428.47962912 </i>
    <i name="e_0_energy">   -428.49920134 </i>
   </energy>
  </scstep>
  <scstep>
   <time name="dav">  180.02  180.30</time>
   <time name="total">  184.99  185.30</time>
   <energy>
    <i name="e_fr_energy">   -429.30479881 </i>
    <i name="e_wo_entrp">   -429.25144192 </i>
    <i name="e_0_energy">   -429.27812036 </i>
   </energy>
  </scstep>
  <scstep>
   <time name="dav">  175.45  175.69</time>
   <time name="total">  180.46  180.71</time>
   <energy>
    <i name="e_fr_energy">   -427.93433306 </i>
    <i name="e_wo_entrp">   -427.86780681 </i>
    <i name="e_0_energy">   -427.90106994 </i>
   </energy>
  </scstep>
  <scstep>
   <time name="dav">  183.03  183.28</time>
   <time name="total">  188.03  188.32</time>
   <energy>
    <i name="e_fr_energy">   -427.70082920 </i>
    <i name="e_wo_entrp">   -427.64591065 </i>
    <i name="e_0_energy">   -427.67336992 </i>
   </energy>
  </scstep>
  <scstep>
   <time name="dav">  177.45  177.75</time>
   <time name="total">  182.40  184.87</time>
   <energy>
    <i name="e_fr_energy">   -427.64654799 </i>
    <i name="e_wo_entrp">   -427.59184430 </i>
    <i name="e_0_energy">   -427.61919614 </i>
   </energy>
  </scstep>
  <scstep>
   <time name="dav">  172.15  172.47</time>
   <time name="total">  177.14  178.17</time>
   <energy>
    <i name="e_fr_energy">   -427.54154680 </i>
    <i name="e_wo_entrp">   -427.49232159 </i>
    <i name="e_0_energy">   -427.51693420 </i>
   </energy>
  </scstep>
  <scstep>
   <time name="dav">  175.68  175.95</time>
   <time name="total">  180.64  180.91</time>
   <energy>
    <i name="e_fr_energy">   -427.61182982 </i>
    <i name="e_wo_entrp">   -427.56335784 </i>
    <i name="e_0_energy">   -427.58759383 </i>
   </energy>
  </scstep>
  <scstep>
   <time name="dav">  164.88  165.14</time>
   <time name="total">  170.09  170.36</time>
   <energy>
    <i name="e_fr_energy">   -427.51265886 </i>
    <i name="e_wo_entrp">   -427.46304688 </i>
    <i name="e_0_energy">   -427.48785287 </i>
   </energy>
  </scstep>
  <scstep>
   <time name="dav">  178.69  178.99</time>
   <time name="total">  183.70  184.00</time>
   <energy>
    <i name="e_fr_energy">   -427.47880335 </i>
    <i name="e_wo_entrp">   -427.42761039 </i>
    <i name="e_0_energy">   -427.45320687 </i>
   </energy>
  </scstep>
  <scstep>
   <time name="dav">  197.71  198.02</time>
   <time name="total">  202.73  203.07</time>
   <energy>
    <i name="e_fr_energy">   -427.46508591 </i>
    <i name="e_wo_entrp">   -427.41256638 </i>
    <i name="e_0_energy">   -427.43882615 </i>
   </energy>
  </scstep>
  <scstep>
   <time name="dav">  178.86  179.13</time>
   <time name="total">  185.30  185.58</time>
   <energy>
    <i name="e_fr_energy">   -427.46501183 </i>
    <i name="e_wo_entrp">   -427.41194063 </i>
    <i name="e_0_energy">   -427.43847623 </i>
   </energy>
  </scstep>
  <scstep>
   <time name="dav">  167.13  167.38</time>
   <time name="total">  174.18  174.45</time>
   <energy>
    <i name="e_fr_energy">   -427.46548205 </i>
    <i name="e_wo_entrp">   -427.41222240 </i>
    <i name="e_0_energy">   -427.43885223 </i>
   </energy>
  </scstep>
  <scstep>
   <time name="dav">  163.23  163.45</time>
   <time name="total">  168.21  168.44</time>
   <energy>
    <i name="e_fr_energy">   -427.46593205 </i>
    <i name="e_wo_entrp">   -427.41237517 </i>
    <i name="e_0_energy">   -427.43915361 </i>
   </energy>
  </scstep>
  <scstep>
   <time name="dav">  161.31  161.55</time>
   <time name="total">  166.29  166.53</time>
   <energy>
    <i name="e_fr_energy">   -427.46593877 </i>
    <i name="e_wo_entrp">   -427.41264975 </i>
    <i name="e_0_energy">   -427.43929426 </i>
   </energy>
  </scstep>
  <scstep>
   <time name="dav">  159.85  160.11</time>
   <time name="total">  164.82  165.09</time>
   <energy>
    <i name="e_fr_energy">   -427.46598045 </i>
    <i name="e_wo_entrp">   -427.41270402 </i>
    <i name="e_0_energy">   -427.43934223 </i>
   </energy>
  </scstep>
  <scstep>
   <time name="dav">  161.17  161.54</time>
   <time name="total">  166.16  166.55</time>
   <energy>
    <i name="e_fr_energy">   -427.46611036 </i>
    <i name="e_wo_entrp">   -427.41283488 </i>
    <i name="e_0_energy">   -427.43947262 </i>
   </energy>
  </scstep>
  <scstep>
   <time name="dav">  173.15  173.41</time>
   <time name="total">  179.09  179.36</time>
   <energy>
    <i name="e_fr_energy">   -427.46626819 </i>
    <i name="e_wo_entrp">   -427.41302851 </i>
    <i name="e_0_energy">   -427.43964835 </i>
   </energy>
  </scstep>
  <scstep>
   <time name="dav">  181.17  181.46</time>
   <time name="total">  186.13  186.43</time>
   <energy>
    <i name="e_fr_energy">   -427.46650740 </i>
    <i name="e_wo_entrp">   -427.41326401 </i>
    <i name="e_0_energy">   -427.43988570 </i>
   </energy>
  </scstep>
  <scstep>
   <time name="dav">  213.27  213.59</time>
   <time name="total">  218.23  218.56</time>
   <energy>
    <i name="e_fr_energy">   -427.46677121 </i>
    <i name="e_wo_entrp">   -427.41353494 </i>
    <i name="e_0_energy">   -427.44015307 </i>
   </energy>
  </scstep>
  <scstep>
   <time name="dav">  163.78  164.02</time>
   <time name="total">  168.75  169.00</time>
   <energy>
    <i name="e_fr_energy">   -427.46694591 </i>
    <i name="e_wo_entrp">   -427.41372315 </i>
    <i name="e_0_energy">   -427.44033453 </i>
   </energy>
  </scstep>
  <scstep>
   <time name="dav">  158.37  158.62</time>
   <time name="total">  165.47  165.72</time>
   <energy>
    <i name="e_fr_energy">   -427.46708802 </i>
    <i name="e_wo_entrp">   -427.41387668 </i>
    <i name="e_0_energy">   -427.44048235 </i>
   </energy>
  </scstep>
  <scstep>
   <time name="dav">  153.69  153.95</time>
   <time name="total">  158.69  158.96</time>
   <energy>
    <i name="e_fr_energy">   -427.46720264 </i>
    <i name="e_wo_entrp">   -427.41398941 </i>
    <i name="e_0_energy">   -427.44059602 </i>
   </energy>
  </scstep>
  <scstep>
   <time name="dav">  152.97  153.33</time>
   <time name="total">  157.96  158.33</time>
   <energy>
    <i name="e_fr_energy">   -427.46729746 </i>
    <i name="e_wo_entrp">   -427.41407119 </i>
    <i name="e_0_energy">   -427.44068432 </i>
   </energy>
  </scstep>
  <scstep>
   <time name="dav">  147.40  147.64</time>
   <time name="total">  152.40  152.67</time>
   <energy>
    <i name="e_fr_energy">   -427.46734974 </i>
    <i name="e_wo_entrp">   -427.41411228 </i>
    <i name="e_0_energy">   -427.44073101 </i>
   </energy>
  </scstep>
  <scstep>
   <time name="dav">  119.35  119.62</time>
   <time name="total">  124.33  124.61</time>
   <energy>
    <i name="e_fr_energy">   -427.46737407 </i>
    <i name="e_wo_entrp">   -427.41413538 </i>
    <i name="e_0_energy">   -427.44075473 </i>
   </energy>
  </scstep>
  <scstep>
   <time name="dav">  119.34  119.56</time>
   <time name="total">  127.05  127.28</time>
   <energy>
    <i name="e_fr_energy">   -427.46739045 </i>
    <i name="e_wo_entrp">   -427.41415478 </i>
    <i name="e_0_energy">   -427.44077262 </i>
   </energy>
  </scstep>
  <scstep>
   <time name="dav">  121.03  121.29</time>
   <time name="total">  126.04  126.31</time>
   <energy>
    <i name="e_fr_energy">   -427.46741155 </i>
    <i name="e_wo_entrp">   -427.41418352 </i>
    <i name="e_0_energy">   -427.44079754 </i>
   </energy>
  </scstep>
  <scstep>
   <time name="dav">  117.56  117.74</time>
   <time name="total">  122.53  122.72</time>
   <energy>
    <i name="e_fr_energy">   -427.46741886 </i>
    <i name="e_wo_entrp">   -427.41419336 </i>
    <i name="e_0_energy">   -427.44080611 </i>
   </energy>
  </scstep>
  <scstep>
   <time name="dav">  118.64  118.93</time>
   <time name="total">  123.64  123.94</time>
   <energy>
    <i name="e_fr_energy">   -427.46742746 </i>
    <i name="e_wo_entrp">   -427.41420033 </i>
    <i name="e_0_energy">   -427.44081390 </i>
   </energy>
  </scstep>
  <scstep>
   <time name="dav">  116.58  116.76</time>
   <time name="total">  123.38  123.57</time>
   <energy>
    <i name="e_fr_energy">   -427.46743022 </i>
    <i name="e_wo_entrp">   -427.41420173 </i>
    <i name="e_0_energy">   -427.44081598 </i>
   </energy>
  </scstep>
  <scstep>
   <time name="dav">  116.95  117.14</time>
   <time name="total">  121.94  122.15</time>
   <energy>
    <i name="e_fr_energy">   -427.46743161 </i>
    <i name="e_wo_entrp">   -427.41420278 </i>
    <i name="e_0_energy">   -427.44081719 </i>
   </energy>
  </scstep>
  <scstep>
   <time name="dav">  113.70  113.98</time>
   <time name="total">  118.66  118.94</time>
   <energy>
    <i name="e_fr_energy">   -427.46743285 </i>
    <i name="e_wo_entrp">   -427.41420357 </i>
    <i name="e_0_energy">   -427.44081821 </i>
   </energy>
  </scstep>
  <scstep>
   <time name="dav">  113.91  114.30</time>
   <time name="total">  114.40  114.79</time>
   <energy>
    <i name="alphaZ">   6463.29446255 </i>
    <i name="ewald"> 664607.01392069 </i>
    <i name="hartreedc">-813397.93610584 </i>
    <i name="XCdc">   4896.83167447 </i>
    <i name="pawpsdc"> 123760.00040985 </i>
    <i name="pawaedc">-139977.06187388 </i>
    <i name="eentropy">     -0.05322904 </i>
    <i name="bandstr">  -4298.38740816 </i>
    <i name="atom"> 157518.83071590 </i>
    <i name="e_fr_energy">   -427.46743346 </i>
    <i name="e_wo_entrp">   -427.41420442 </i>
    <i name="e_0_energy">   -427.44081894 </i>
   </energy>
  </scstep>
  <structure>
   <crystal>
    <varray name="basis" >
     <v>      10.28518105       0.00000000       0.00000000 </v>
     <v>       5.14259052       8.90722807       0.00000000 </v>
     <v>       0.00000000       0.00000000      27.79016876 </v>
    </varray>
    <i name="volume">   2545.92553775 </i>
    <varray name="rec_basis" >
     <v>       0.09722726      -0.05613419       0.00000000 </v>
     <v>       0.00000000       0.11226837       0.00000000 </v>
     <v>       0.00000000       0.00000000       0.03598395 </v>
    </varray>
   </crystal>
   <varray name="positions" >
    <v>       0.00000000       0.00000000       0.22663990 </v>
    <v>       0.00000000       0.50000000       0.22663990 </v>
    <v>       0.50000000       0.00000000       0.22663990 </v>
    <v>       0.50000000       0.50000000       0.22663990 </v>
    <v>       0.00000000       0.25000000       0.22663990 </v>
    <v>       0.00000000       0.75000000       0.22663990 </v>
    <v>       0.50000000       0.25000000       0.22663990 </v>
    <v>       0.50000000       0.75000000       0.22663990 </v>
    <v>       0.25000000       0.00000000       0.22663990 </v>
    <v>       0.25000000       0.50000000       0.22663990 </v>
    <v>       0.75000000       0.00000000       0.22663990 </v>
    <v>       0.75000000       0.50000000       0.22663990 </v>
    <v>       0.25000000       0.25000000       0.22663990 </v>
    <v>       0.25000000       0.75000000       0.22663990 </v>
    <v>       0.75000000       0.25000000       0.22663990 </v>
    <v>       0.75000000       0.75000000       0.22663990 </v>
    <v>       0.16666666       0.16666666       0.30218653 </v>
    <v>       0.16666666       0.66666666       0.30218653 </v>
    <v>       0.66666666       0.16666666       0.30218653 </v>
    <v>       0.66666666       0.66666666       0.30218653 </v>
    <v>       0.16666666       0.41666666       0.30218653 </v>
    <v>       0.16666666       0.91666666       0.30218653 </v>
    <v>       0.66666666       0.41666666       0.30218653 </v>
    <v>       0.66666666       0.91666666       0.30218653 </v>
    <v>       0.41666666       0.16666666       0.30218653 </v>
    <v>       0.41666666       0.66666666       0.30218653 </v>
    <v>       0.91666666       0.16666666       0.30218653 </v>
    <v>       0.91666666       0.66666666       0.30218653 </v>
    <v>       0.41666666       0.41666666       0.30218653 </v>
    <v>       0.41666666       0.91666666       0.30218653 </v>
    <v>       0.91666666       0.41666666       0.30218653 </v>
    <v>       0.91666666       0.91666666       0.30218653 </v>
    <v>       0.08333333       0.08333333       0.37716320 </v>
    <v>       0.08333333       0.58333333       0.37716320 </v>
    <v>       0.58333333       0.08333333       0.37716320 </v>
    <v>       0.58333333       0.58333333       0.37716320 </v>
    <v>       0.08351614       0.33324190       0.37729758 </v>
    <v>       0.08351614       0.83324190       0.37729758 </v>
    <v>       0.58351614       0.33324190       0.37729758 </v>
    <v>       0.58351614       0.83324190       0.37729758 </v>
    <v>       0.33324190       0.08351614       0.37729758 </v>
    <v>       0.33324190       0.58351614       0.37729758 </v>
    <v>       0.83324190       0.08351614       0.37729758 </v>
    <v>       0.83324190       0.58351614       0.37729758 </v>
    <v>       0.33324190       0.33324190       0.37729758 </v>
    <v>       0.33324190       0.83324190       0.37729758 </v>
    <v>       0.83324190       0.33324190       0.37729758 </v>
    <v>       0.83324190       0.83324190       0.37729758 </v>
    <v>       0.00012997       0.00012997       0.45242342 </v>
    <v>       0.00012997       0.50012997       0.45242342 </v>
    <v>       0.50012997       0.00012997       0.45242342 </v>
    <v>       0.50012997       0.50012997       0.45242342 </v>
    <v>       0.00012997       0.24974005       0.45242342 </v>
    <v>       0.00012997       0.74974005       0.45242342 </v>
    <v>       0.50012997       0.24974005       0.45242342 </v>
    <v>       0.50012997       0.74974005       0.45242342 </v>
    <v>       0.24974005       0.00012997       0.45242342 </v>
    <v>       0.24974005       0.50012997       0.45242342 </v>
    <v>       0.74974005       0.00012997       0.45242342 </v>
    <v>       0.74974005       0.50012997       0.45242342 </v>
    <v>       0.25000000       0.25000000       0.45288750 </v>
    <v>       0.25000000       0.75000000       0.45288750 </v>
    <v>       0.75000000       0.25000000       0.45288750 </v>
    <v>       0.75000000       0.75000000       0.45288750 </v>
    <v>       0.16739984       0.16501827       0.52763018 </v>
    <v>       0.16660598       0.66660598       0.52813907 </v>
    <v>       0.66660598       0.16660598       0.52813907 </v>
    <v>       0.66660598       0.66660598       0.52813907 </v>
    <v>       0.16660598       0.41678801       0.52813907 </v>
    <v>       0.16660598       0.91678801       0.52813907 </v>
    <v>       0.66660598       0.41678801       0.52813907 </v>
    <v>       0.66660598       0.91678801       0.52813907 </v>
    <v>       0.41678801       0.16660598       0.52813907 </v>
    <v>       0.41678801       0.66660598       0.52813907 </v>
    <v>       0.91678801       0.16660598       0.52813907 </v>
    <v>       0.91678801       0.66660598       0.52813907 </v>
    <v>       0.41666666       0.41666666       0.52741939 </v>
    <v>       0.41666666       0.91666666       0.52741939 </v>
    <v>       0.91666666       0.41666666       0.52741939 </v>
    <v>       0.91666666       0.91666666       0.52741939 </v>
    <v>       0.08333333       0.08333333       0.60253339 </v>
    <v>       0.08333333       0.58333333       0.60253339 </v>
    <v>       0.58333333       0.08333333       0.60253339 </v>
    <v>       0.58333333       0.58333333       0.60253339 </v>
    <v>       0.08130935       0.33434529       0.60320464 </v>
    <v>       0.08130935       0.83434529       0.60320464 </v>
    <v>       0.58130935       0.33434529       0.60320464 </v>
    <v>       0.58130935       0.83434529       0.60320464 </v>
    <v>       0.33434529       0.08130935       0.60320464 </v>
    <v>       0.33434529       0.58130935       0.60320464 </v>
    <v>       0.83434529       0.08130935       0.60320464 </v>
    <v>       0.83434529       0.58130935       0.60320464 </v>
    <v>       0.33434529       0.33434529       0.60320464 </v>
    <v>       0.33434529       0.83434529       0.60320464 </v>
    <v>       0.83434529       0.33434529       0.60320464 </v>
    <v>       0.83434529       0.83434529       0.60320464 </v>
    <v>       0.49714648       0.49714648       0.68057248 </v>
    <v>       0.49714648       0.99714648       0.68057248 </v>
    <v>       0.99714648       0.49714648       0.68057248 </v>
    <v>       0.99714648       0.99714648       0.68057248 </v>
    <v>       0.49714648       0.25570704       0.68057248 </v>
    <v>       0.49714648       0.75570704       0.68057248 </v>
    <v>       0.99714648       0.25570704       0.68057248 </v>
    <v>       0.99714648       0.75570704       0.68057248 </v>
    <v>       0.25570704       0.49714648       0.68057248 </v>
    <v>       0.25570704       0.99714648       0.68057248 </v>
    <v>       0.75570704       0.49714648       0.68057248 </v>
    <v>       0.75570704       0.99714648       0.68057248 </v>
    <v>       0.25000000       0.25000000       0.67480871 </v>
    <v>       0.25000000       0.75000000       0.67480871 </v>
    <v>       0.75000000       0.25000000       0.67480871 </v>
    <v>       0.75000000       0.75000000       0.67480871 </v>
    <v>       0.08333333       0.08333333       0.72043888 </v>
    <v>       0.08333333       0.58333333       0.72043888 </v>
    <v>       0.58333333       0.08333333       0.72043888 </v>
    <v>       0.58333333       0.58333333       0.72043888 </v>
   </varray>
  </structure>
  <varray name="forces" >
   <v>       0.00794752       0.00459537       0.07171642 </v>
   <v>       0.00791192       0.00440234       0.07171778 </v>
   <v>       0.00784504       0.00458722       0.07167846 </v>
   <v>       0.00785695       0.00444202       0.07162644 </v>
   <v>      -0.00007238      -0.00914118       0.07167792 </v>
   <v>      -0.00010874      -0.00911698       0.07180909 </v>
   <v>      -0.00021511      -0.00903192       0.07168738 </v>
   <v>      -0.00006559      -0.00911614       0.07160975 </v>
   <v>      -0.00792459       0.00449945       0.07164248 </v>
   <v>      -0.00797623       0.00453141       0.07160015 </v>
   <v>      -0.00790913       0.00467170       0.07163894 </v>
   <v>      -0.00780429       0.00454216       0.07160057 </v>
   <v>       0.00009709      -0.00004628       0.08629122 </v>
   <v>       0.00019508      -0.00003426       0.08631776 </v>
   <v>       0.00007880       0.00006278       0.08637713 </v>
   <v>       0.00007898       0.00004721       0.08642776 </v>
   <v>       0.00702535       0.00405573      -0.07992263 </v>
   <v>       0.00696040       0.00396863      -0.07995216 </v>
   <v>       0.00703342       0.00390936      -0.07988598 </v>
   <v>       0.00699987       0.00383673      -0.07991329 </v>
   <v>      -0.00013130      -0.00787565      -0.07995792 </v>
   <v>       0.00001253      -0.00809105      -0.07999712 </v>
   <v>      -0.00019877      -0.00833709      -0.07999501 </v>
   <v>      -0.00013089      -0.00811947      -0.08010181 </v>
   <v>      -0.00706415       0.00426062      -0.07995039 </v>
   <v>      -0.00712619       0.00411422      -0.08017860 </v>
   <v>      -0.00692215       0.00421430      -0.07999923 </v>
   <v>      -0.00698189       0.00426395      -0.08001693 </v>
   <v>       0.00013808      -0.00026321      -0.05931359 </v>
   <v>       0.00010256       0.00000887      -0.05922620 </v>
   <v>       0.00005445       0.00025131      -0.05918435 </v>
   <v>       0.00024001      -0.00015069      -0.05925167 </v>
   <v>      -0.00007635      -0.00011600      -0.00085478 </v>
   <v>      -0.00001942      -0.00007471      -0.00005412 </v>
   <v>      -0.00012053       0.00011985       0.00019772 </v>
   <v>       0.00005104       0.00010441      -0.00009541 </v>
   <v>       0.00009283       0.00011139      -0.00068571 </v>
   <v>       0.00005848       0.00009345       0.00006456 </v>
   <v>      -0.00002632       0.00009359      -0.00011464 </v>
   <v>      -0.00011022       0.00015985       0.00014691 </v>
   <v>       0.00019771      -0.00009939      -0.00093214 </v>
   <v>       0.00006878       0.00011547      -0.00005662 </v>
   <v>       0.00014826       0.00014115       0.00014148 </v>
   <v>       0.00004300      -0.00009077      -0.00009707 </v>
   <v>       0.00004681       0.00006042      -0.00007677 </v>
   <v>      -0.00003327      -0.00004895      -0.00020778 </v>
   <v>      -0.00006830       0.00000743       0.00000177 </v>
   <v>      -0.00002596      -0.00010206       0.00003594 </v>
   <v>      -0.00068680      -0.00015718      -0.00036813 </v>
   <v>       0.00002615       0.00023473       0.00053686 </v>
   <v>       0.00073798      -0.00004182      -0.00026790 </v>
   <v>       0.00003540       0.00000169       0.00025347 </v>
   <v>      -0.00625720       0.00525148      -0.00933912 </v>
   <v>       0.00013365       0.00010894       0.00001261 </v>
   <v>      -0.00000771      -0.00007308       0.00000619 </v>
   <v>       0.00027316      -0.00105545      -0.00039717 </v>
   <v>       0.00006584      -0.01983640      -0.02819579 </v>
   <v>      -0.00013423      -0.00030591       0.00001834 </v>
   <v>       0.00004672      -0.00014196       0.00010548 </v>
   <v>       0.00000377      -0.00024003      -0.00013505 </v>
   <v>       0.00672317       0.00550254      -0.01023397 </v>
   <v>      -0.00022766      -0.00094101      -0.00041368 </v>
   <v>      -0.00022770       0.00009473      -0.00003895 </v>
   <v>      -0.00024021       0.00016809       0.00001231 </v>
   <v>      -0.00157277       0.09072320       0.09286302 </v>
   <v>      -0.00027722      -0.00004782      -0.00000897 </v>
   <v>      -0.00005492       0.00012975      -0.00011564 </v>
   <v>       0.00022671      -0.00014482      -0.00004977 </v>
   <v>      -0.01059831      -0.01732322       0.00107305 </v>
   <v>      -0.01152201      -0.01839677       0.00141275 </v>
   <v>       0.00047082      -0.00016230       0.00017685 </v>
   <v>       0.00019169      -0.00012796      -0.00003853 </v>
   <v>      -0.00005054       0.00170844       0.00152760 </v>
   <v>       0.00009010      -0.00073436      -0.00009549 </v>
   <v>       0.00014465       0.00158612       0.00138092 </v>
   <v>      -0.00005415      -0.00096418       0.00013087 </v>
   <v>      -0.00022527      -0.00012914      -0.00008036 </v>
   <v>       0.01153536      -0.01868849       0.00125187 </v>
   <v>       0.01051983      -0.01705255       0.00129605 </v>
   <v>      -0.00048153      -0.00028279       0.00014210 </v>
   <v>       0.00727795       0.00594254      -0.01078763 </v>
   <v>      -0.00019956      -0.00087914      -0.00078107 </v>
   <v>      -0.00021088       0.00007951      -0.00011690 </v>
   <v>      -0.00009513       0.00003262      -0.00016955 </v>
   <v>       0.00107483      -0.01796519      -0.02691862 </v>
   <v>       0.00010119      -0.00021551      -0.00043618 </v>
   <v>       0.00003852      -0.00015098      -0.00022304 </v>
   <v>       0.00015377      -0.00021044      -0.00041091 </v>
   <v>      -0.00620216       0.00552744      -0.01008494 </v>
   <v>       0.00016311       0.00012972      -0.00016211 </v>
   <v>       0.00020124       0.00036325      -0.00025625 </v>
   <v>       0.00023663      -0.00063294      -0.00090774 </v>
   <v>      -0.00108711      -0.00019448      -0.00059314 </v>
   <v>       0.00010414      -0.00020894       0.00000170 </v>
   <v>       0.00058929      -0.00029730      -0.00066771 </v>
   <v>       0.00000590       0.00009769      -0.00020302 </v>
   <v>      -0.00007145      -0.00016469      -0.00063701 </v>
   <v>       0.00000191       0.00007769      -0.00076131 </v>
   <v>      -0.00032636       0.00017309      -0.00061953 </v>
   <v>      -0.00021335      -0.00010174      -0.00088395 </v>
   <v>       0.00026598       0.00018453      -0.00064892 </v>
   <v>      -0.00012968       0.00018782      -0.00087685 </v>
   <v>      -0.00003395      -0.00032474      -0.00171659 </v>
   <v>       0.00010006       0.00018715      -0.00080909 </v>
   <v>       0.00022746       0.00019729      -0.00045149 </v>
   <v>      -0.00010116       0.00000882      -0.00112831 </v>
   <v>       0.00009977       0.00002173      -0.00051200 </v>
   <v>       0.00014506       0.00003268      -0.00087850 </v>
   <v>      -0.00020240      -0.00022474      -0.00135685 </v>
   <v>       0.00008651      -0.00000093      -0.00017002 </v>
   <v>      -0.00008851      -0.00001221       0.00003666 </v>
   <v>      -0.00011366      -0.00015903      -0.00030509 </v>
   <v>       0.00020704       0.00008603       0.00193698 </v>
   <v>      -0.00011771      -0.00039184       0.00118789 </v>
   <v>      -0.00029290      -0.00007792       0.00158055 </v>
   <v>      -0.00037437      -0.00019593       0.00132298 </v>
  </varray>
  <varray name="stress" >
   <v>      -2.06320295      -0.00170345      -0.00090597 </v>
   <v>      -0.00170347      -2.05702306       0.00099623 </v>
   <v>      -0.00090596       0.00099626      -2.15828749 </v>
  </varray>
  <energy>
   <i name="e_fr_energy">   -427.46743346 </i>
   <i name="e_wo_entrp">   -427.44081894 </i>
   <i name="e_0_energy">     -0.05322904 </i>
  </energy>
  <time name="totalsc"> 7078.34 7093.11</time>
  <eigenvalues>
   <array>
    <dimension dim="1">band</dimension>
    <dimension dim="2">kpoint</dimension>
    <dimension dim="3">spin</dimension>
    <field>eigene</field>
    <field>occ</field>
    <set>
     <set comment="spin 1">
      <set comment="kpoint 1">
       <r>  -18.6065    1.0000 </r>
       <r>  -18.5937    1.0000 </r>
       <r>  -18.5936    1.0000 </r>
       <r>  -18.5935    1.0000 </r>
       <r>   -9.4531    1.0000 </r>
       <r>   -8.9599    1.0000 </r>
       <r>   -8.1740    1.0000 </r>
       <r>   -7.6008    1.0000 </r>
       <r>   -7.5990    1.0000 </r>
       <r>   -7.5977    1.0000 </r>
       <r>   -7.5786    1.0000 </r>
       <r>   -7.5772    1.0000 </r>
       <r>   -7.5765    1.0000 </r>
       <r>   -7.2193    1.0000 </r>
       <r>   -7.2190    1.0000 </r>
       <r>   -7.2178    1.0000 </r>
       <r>   -7.1999    1.0000 </r>
       <r>   -7.1452    1.0000 </r>
       <r>   -7.1451    1.0000 </r>
       <r>   -7.1440    1.0000 </r>
       <r>   -6.6279    1.0000 </r>
       <r>   -6.6268    1.0000 </r>
       <r>   -6.6266    1.0000 </r>
       <r>   -6.4861    1.0000 </r>
       <r>   -6.4852    1.0000 </r>
       <r>   -6.4850    1.0000 </r>
       <r>   -6.2512    1.0000 </r>
       <r>   -5.9485    1.0000 </r>
       <r>   -5.9478    1.0000 </r>
       <r>   -5.9468    1.0000 </r>
       <r>   -5.7424    1.0000 </r>
       <r>   -5.7416    1.0000 </r>
       <r>   -5.7411    1.0000 </r>
       <r>   -5.6689    1.0000 </r>
       <r>   -5.6246    1.0000 </r>
       <r>   -5.6245    1.0000 </r>
       <r>   -5.4387    1.0000 </r>
       <r>   -5.4097    1.0000 </r>
       <r>   -5.4097    1.0000 </r>
       <r>   -5.4096    1.0000 </r>
       <r>   -5.3416    1.0000 </r>
       <r>   -5.3410    1.0000 </r>
       <r>   -5.3409    1.0000 </r>
       <r>   -5.3240    1.0000 </r>
       <r>   -5.2835    1.0000 </r>
       <r>   -5.2832    1.0000 </r>
       <r>   -5.2151    1.0000 </r>
       <r>   -5.2089    1.0000 </r>
       <r>   -5.2083    1.0000 </r>
       <r>   -5.2082    1.0000 </r>
       <r>   -5.1342    1.0000 </r>
       <r>   -5.1340    1.0000 </r>
       <r>   -5.1235    1.0000 </r>
       <r>   -5.0554    1.0000 </r>
       <r>   -5.0330    1.0000 </r>
       <r>   -5.0327    1.0000 </r>
       <r>   -5.0039    1.0000 </r>
       <r>   -5.0036    1.0000 </r>
       <r>   -5.0031    1.0000 </r>
       <r>   -4.9790    1.0000 </r>
       <r>   -4.9777    1.0000 </r>
       <r>   -4.9772    1.0000 </r>
       <r>   -4.9624    1.0000 </r>
       <r>   -4.9618    1.0000 </r>
       <r>   -4.9570    1.0000 </r>
       <r>   -4.9566    1.0000 </r>
       <r>   -4.9559    1.0000 </r>
       <r>   -4.9350    1.0000 </r>
       <r>   -4.8824    1.0000 </r>
       <r>   -4.8821    1.0000 </r>
       <r>   -4.8812    1.0000 </r>
       <r>   -4.8539    1.0000 </r>
       <r>   -4.8535    1.0000 </r>
       <r>   -4.8525    1.0000 </r>
       <r>   -4.8408    1.0000 </r>
       <r>   -4.8249    1.0000 </r>
       <r>   -4.8244    1.0000 </r>
       <r>   -4.8125    1.0000 </r>
       <r>   -4.8116    1.0000 </r>
       <r>   -4.8107    1.0000 </r>
       <r>   -4.7498    1.0000 </r>
       <r>   -4.7489    1.0000 </r>
       <r>   -4.7481    1.0000 </r>
       <r>   -4.7063    1.0000 </r>
       <r>   -4.7062    1.0000 </r>
       <r>   -4.7057    1.0000 </r>
       <r>   -4.7027    1.0000 </r>
       <r>   -4.6945    1.0000 </r>
       <r>   -4.6943    1.0000 </r>
       <r>   -4.6218    1.0000 </r>
       <r>   -4.6212    1.0000 </r>
       <r>   -4.6205    1.0000 </r>
       <r>   -4.5864    1.0000 </r>
       <r>   -4.5859    1.0000 </r>
       <r>   -4.5855    1.0000 </r>
       <r>   -4.5817    1.0000 </r>
       <r>   -4.5779    1.0000 </r>
       <r>   -4.5778    1.0000 </r>
       <r>   -4.5453    1.0000 </r>
       <r>   -4.5390    1.0000 </r>
       <r>   -4.5385    1.0000 </r>
       <r>   -4.5382    1.0000 </r>
       <r>   -4.5379    1.0000 </r>
       <r>   -4.5374    1.0000 </r>
       <r>   -4.5280    1.0000 </r>
       <r>   -4.5279    1.0000 </r>
       <r>   -4.5277    1.0000 </r>
       <r>   -4.5041    1.0000 </r>
       <r>   -4.5037    1.0000 </r>
       <r>   -4.5029    1.0000 </r>
       <r>   -4.4603    1.0000 </r>
       <r>   -4.4602    1.0000 </r>
       <r>   -4.4602    1.0000 </r>
       <r>   -4.4550    1.0000 </r>
       <r>   -4.4545    1.0000 </r>
       <r>   -4.4543    1.0000 </r>
       <r>   -4.4473    1.0000 </r>
       <r>   -4.4465    1.0000 </r>
       <r>   -4.4452    1.0000 </r>
       <r>   -4.4064    1.0000 </r>
       <r>   -4.4060    1.0000 </r>
       <r>   -4.4056    1.0000 </r>
       <r>   -4.3888    1.0000 </r>
       <r>   -4.3887    1.0000 </r>
       <r>   -4.3500    1.0000 </r>
       <r>   -4.3495    1.0000 </r>
       <r>   -4.3487    1.0000 </r>
       <r>   -4.3375    1.0000 </r>
       <r>   -4.2428    1.0000 </r>
       <r>   -4.2426    1.0000 </r>
       <r>   -4.2287    1.0000 </r>
       <r>   -4.2282    1.0000 </r>
       <r>   -4.2278    1.0000 </r>
       <r>   -4.2206    1.0000 </r>
       <r>   -4.2198    1.0000 </r>
       <r>   -4.2188    1.0000 </r>
       <r>   -4.2181    1.0000 </r>
       <r>   -4.2172    1.0000 </r>
       <r>   -4.2170    1.0000 </r>
       <r>   -4.2143    1.0000 </r>
       <r>   -4.2141    1.0000 </r>
       <r>   -4.2136    1.0000 </r>
       <r>   -4.2114    1.0000 </r>
       <r>   -4.2110    1.0000 </r>
       <r>   -4.2106    1.0000 </r>
       <r>   -4.1801    1.0000 </r>
       <r>   -4.1795    1.0000 </r>
       <r>   -4.1790    1.0000 </r>
       <r>   -4.0969    1.0000 </r>
       <r>   -4.0968    1.0000 </r>
       <r>   -4.0963    1.0000 </r>
       <r>   -4.0786    1.0000 </r>
       <r>   -4.0785    1.0000 </r>
       <r>   -4.0777    1.0000 </r>
       <r>   -4.0763    1.0000 </r>
       <r>   -4.0759    1.0000 </r>
       <r>   -4.0758    1.0000 </r>
       <r>   -4.0566    1.0000 </r>
       <r>   -4.0564    1.0000 </r>
       <r>   -4.0561    1.0000 </r>
       <r>   -4.0443    1.0000 </r>
       <r>   -4.0440    1.0000 </r>
       <r>   -4.0436    1.0000 </r>
       <r>   -4.0168    1.0000 </r>
       <r>   -4.0047    1.0000 </r>
       <r>   -4.0045    1.0000 </r>
       <r>   -4.0041    1.0000 </r>
       <r>   -3.9695    1.0000 </r>
       <r>   -3.9694    1.0000 </r>
       <r>   -3.9385    1.0000 </r>
       <r>   -3.9380    1.0000 </r>
       <r>   -3.9375    1.0000 </r>
       <r>   -3.9292    1.0000 </r>
       <r>   -3.9288    1.0000 </r>
       <r>   -3.9286    1.0000 </r>
       <r>   -3.9098    1.0000 </r>
       <r>   -3.9092    1.0000 </r>
       <r>   -3.9088    1.0000 </r>
       <r>   -3.8795    1.0000 </r>
       <r>   -3.8791    1.0000 </r>
       <r>   -3.8790    1.0000 </r>
       <r>   -3.8778    1.0000 </r>
       <r>   -3.8767    1.0000 </r>
       <r>   -3.8765    1.0000 </r>
       <r>   -3.8321    1.0000 </r>
       <r>   -3.8311    1.0000 </r>
       <r>   -3.8307    1.0000 </r>
       <r>   -3.8303    1.0000 </r>
       <r>   -3.8120    1.0000 </r>
       <r>   -3.8119    1.0000 </r>
       <r>   -3.8116    1.0000 </r>
       <r>   -3.7989    1.0000 </r>
       <r>   -3.7983    1.0000 </r>
       <r>   -3.7974    1.0000 </r>
       <r>   -3.7863    1.0000 </r>
       <r>   -3.7860    1.0000 </r>
       <r>   -3.7853    1.0000 </r>
       <r>   -3.7746    1.0000 </r>
       <r>   -3.7745    1.0000 </r>
       <r>   -3.7737    1.0000 </r>
       <r>   -3.7506    1.0000 </r>
       <r>   -3.7505    1.0000 </r>
       <r>   -3.7501    1.0000 </r>
       <r>   -3.7090    1.0000 </r>
       <r>   -3.7089    1.0000 </r>
       <r>   -3.7086    1.0000 </r>
       <r>   -3.7074    1.0000 </r>
       <r>   -3.7069    1.0000 </r>
       <r>   -3.7066    1.0000 </r>
       <r>   -3.6825    1.0000 </r>
       <r>   -3.6821    1.0000 </r>
       <r>   -3.6818    1.0000 </r>
       <r>   -3.6767    1.0000 </r>
       <r>   -3.6764    1.0000 </r>
       <r>   -3.6759    1.0000 </r>
       <r>   -3.6686    1.0000 </r>
       <r>   -3.6684    1.0000 </r>
       <r>   -3.6409    1.0000 </r>
       <r>   -3.6406    1.0000 </r>
       <r>   -3.6397    1.0000 </r>
       <r>   -3.6172    1.0000 </r>
       <r>   -3.6162    1.0000 </r>
       <r>   -3.6152    1.0000 </r>
       <r>   -3.6144    1.0000 </r>
       <r>   -3.6027    1.0000 </r>
       <r>   -3.6025    1.0000 </r>
       <r>   -3.6023    1.0000 </r>
       <r>   -3.6011    1.0000 </r>
       <r>   -3.6009    1.0000 </r>
       <r>   -3.5996    1.0000 </r>
       <r>   -3.5970    1.0000 </r>
       <r>   -3.5970    1.0000 </r>
       <r>   -3.5964    1.0000 </r>
       <r>   -3.5811    1.0000 </r>
       <r>   -3.5808    1.0000 </r>
       <r>   -3.5804    1.0000 </r>
       <r>   -3.5504    1.0000 </r>
       <r>   -3.5499    1.0000 </r>
       <r>   -3.5499    1.0000 </r>
       <r>   -3.5374    1.0000 </r>
       <r>   -3.5299    1.0000 </r>
       <r>   -3.5116    1.0000 </r>
       <r>   -3.5115    1.0000 </r>
       <r>   -3.4477    1.0000 </r>
       <r>   -3.4475    1.0000 </r>
       <r>   -3.4469    1.0000 </r>
       <r>   -3.4418    1.0000 </r>
       <r>   -3.4339    1.0000 </r>
       <r>   -3.4336    1.0000 </r>
       <r>   -3.4334    1.0000 </r>
       <r>   -3.4285    1.0000 </r>
       <r>   -3.4279    1.0000 </r>
       <r>   -3.4275    1.0000 </r>
       <r>   -3.4194    1.0000 </r>
       <r>   -3.4189    1.0000 </r>
       <r>   -3.4186    1.0000 </r>
       <r>   -3.4179    1.0000 </r>
       <r>   -3.4178    1.0000 </r>
       <r>   -3.4161    1.0000 </r>
       <r>   -3.4153    1.0000 </r>
       <r>   -3.4150    1.0000 </r>
       <r>   -3.4099    1.0000 </r>
       <r>   -3.3985    1.0000 </r>
       <r>   -3.3980    1.0000 </r>
       <r>   -3.3977    1.0000 </r>
       <r>   -3.3863    1.0000 </r>
       <r>   -3.3863    1.0000 </r>
       <r>   -3.3750    1.0000 </r>
       <r>   -3.3632    1.0000 </r>
       <r>   -3.3631    1.0000 </r>
       <r>   -3.3621    1.0000 </r>
       <r>   -3.3500    1.0000 </r>
       <r>   -3.3498    1.0000 </r>
       <r>   -3.3462    1.0000 </r>
       <r>   -3.3462    1.0000 </r>
       <r>   -3.3461    1.0000 </r>
       <r>   -3.3358    1.0000 </r>
       <r>   -3.3356    1.0000 </r>
       <r>   -3.3354    1.0000 </r>
       <r>   -3.3146    1.0000 </r>
       <r>   -3.3144    1.0000 </r>
       <r>   -3.3048    1.0000 </r>
       <r>   -3.3043    1.0000 </r>
       <r>   -3.3037    1.0000 </r>
[...]
       <r>   -14.5221     0.0000     8.0000 </r>
       <r>   -14.4279     0.0000     8.0000 </r>
       <r>   -14.3337     0.0000     8.0000 </r>
       <r>   -14.2395     0.0000     8.0000 </r>
       <r>   -14.1454     0.0000     8.0000 </r>
       <r>   -14.0512     0.0000     8.0000 </r>
       <r>   -13.9570     0.0000     8.0000 </r>
       <r>   -13.8628     0.0000     8.0000 </r>
       <r>   -13.7686     0.0000     8.0000 </r>
       <r>   -13.6744     0.0000     8.0000 </r>
       <r>   -13.5802     0.0000     8.0000 </r>
       <r>   -13.4860     0.0000     8.0000 </r>
       <r>   -13.3919     0.0000     8.0000 </r>
       <r>   -13.2977     0.0000     8.0000 </r>
       <r>   -13.2035     0.0000     8.0000 </r>
       <r>   -13.1093     0.0000     8.0000 </r>
       <r>   -13.0151     0.0000     8.0000 </r>
       <r>   -12.9209     0.0000     8.0000 </r>
       <r>   -12.8267     0.0000     8.0000 </r>
       <r>   -12.7325     0.0000     8.0000 </r>
       <r>   -12.6383     0.0000     8.0000 </r>
       <r>   -12.5442     0.0000     8.0000 </r>
       <r>   -12.4500     0.0000     8.0000 </r>
       <r>   -12.3558     0.0000     8.0000 </r>
       <r>   -12.2616     0.0000     8.0000 </r>
       <r>   -12.1674     0.0000     8.0000 </r>
       <r>   -12.0732     0.0000     8.0000 </r>
       <r>   -11.9790     0.0000     8.0000 </r>
       <r>   -11.8848     0.0000     8.0000 </r>
       <r>   -11.7906     0.0000     8.0000 </r>
       <r>   -11.6965     0.0000     8.0000 </r>
       <r>   -11.6023     0.0000     8.0000 </r>
       <r>   -11.5081     0.0000     8.0000 </r>
       <r>   -11.4139     0.0000     8.0000 </r>
       <r>   -11.3197     0.0000     8.0000 </r>
       <r>   -11.2255     0.0000     8.0000 </r>
       <r>   -11.1313     0.0000     8.0000 </r>
       <r>   -11.0371     0.0000     8.0000 </r>
       <r>   -10.9429     0.0000     8.0000 </r>
       <r>   -10.8488     0.0000     8.0000 </r>
       <r>   -10.7546     0.0000     8.0000 </r>
       <r>   -10.6604     0.0000     8.0000 </r>
       <r>   -10.5662     0.0000     8.0000 </r>
       <r>   -10.4720     0.0000     8.0000 </r>
       <r>   -10.3778     0.0000     8.0000 </r>
       <r>   -10.2836     0.0000     8.0000 </r>
       <r>   -10.1894     0.0000     8.0000 </r>
       <r>   -10.0953     0.0000     8.0000 </r>
       <r>   -10.0011     0.0000     8.0000 </r>
       <r>    -9.9069     0.0000     8.0000 </r>
       <r>    -9.8127     0.0000     8.0000 </r>
       <r>    -9.7185     0.0000     8.0000 </r>
       <r>    -9.6243     0.0000     8.0000 </r>
       <r>    -9.5301     0.0196     8.0018 </r>
       <r>    -9.4359     0.9022     8.0868 </r>
       <r>    -9.3417     3.2913     8.3968 </r>
       <r>    -9.2476     4.9943     8.8672 </r>
       <r>    -9.1534     0.2805     8.8936 </r>
       <r>    -9.0592     5.8704     9.4466 </r>
       <r>    -8.9650     6.2503    10.0353 </r>
       <r>    -8.8708     6.3963    10.6377 </r>
       <r>    -8.7766     6.2041    11.2221 </r>
       <r>    -8.6824     0.5910    11.2777 </r>
       <r>    -8.5882    15.5174    12.7393 </r>
       <r>    -8.4940    11.2135    13.7955 </r>
       <r>    -8.3999     6.3249    14.3912 </r>
       <r>    -8.3057     6.1835    14.9736 </r>
       <r>    -8.2115     0.7974    15.0487 </r>
       <r>    -8.1173    12.8497    16.2590 </r>
       <r>    -8.0231    14.6865    17.6423 </r>
       <r>    -7.9289    13.2021    18.8858 </r>
       <r>    -7.8347    19.6415    20.7358 </r>
       <r>    -7.7405     6.8824    21.3841 </r>
       <r>    -7.6463     5.9536    21.9448 </r>
       <r>    -7.5522    13.0356    23.1726 </r>
       <r>    -7.4580    15.7625    24.6573 </r>
       <r>    -7.3638    16.5220    26.2135 </r>
       <r>    -7.2696     8.8544    27.0474 </r>
       <r>    -7.1754    20.5560    28.9836 </r>
       <r>    -7.0812    16.3242    30.5211 </r>
       <r>    -6.9870    13.1653    31.7612 </r>
       <r>    -6.8928    16.7218    33.3362 </r>
       <r>    -6.7987    31.7729    36.3288 </r>
       <r>    -6.7045    15.1399    37.7548 </r>
       <r>    -6.6103    18.4444    39.4921 </r>
       <r>    -6.5161    13.4906    40.7627 </r>
       <r>    -6.4219    24.4055    43.0614 </r>
       <r>    -6.3277    23.6306    45.2872 </r>
       <r>    -6.2335    18.7795    47.0560 </r>
       <r>    -6.1393    46.4999    51.4358 </r>
       <r>    -6.0451    21.0220    53.4158 </r>
       <r>    -5.9510    45.9718    57.7458 </r>
       <r>    -5.8568    21.1823    59.7409 </r>
       <r>    -5.7626    20.6461    61.6856 </r>
       <r>    -5.6684    59.6995    67.3086 </r>
       <r>    -5.5742    87.0091    75.5038 </r>
       <r>    -5.4800    74.0931    82.4826 </r>
       <r>    -5.3858    60.4108    88.1726 </r>
       <r>    -5.2916    95.2494    97.1440 </r>
       <r>    -5.1974    89.3743   105.5620 </r>
       <r>    -5.1033   108.0202   115.7363 </r>
       <r>    -5.0091   119.2242   126.9659 </r>
       <r>    -4.9149   145.3097   140.6524 </r>
       <r>    -4.8207   127.6641   152.6769 </r>
       <r>    -4.7265   126.6145   164.6025 </r>
       <r>    -4.6323   166.4797   180.2830 </r>
       <r>    -4.5381   204.3776   199.5330 </r>
       <r>    -4.4439   241.2406   222.2551 </r>
       <r>    -4.3497   284.6247   249.0635 </r>
       <r>    -4.2556   253.7993   272.9685 </r>
       <r>    -4.1614   219.8663   293.6774 </r>
       <r>    -4.0672   206.5775   313.1347 </r>
       <r>    -3.9730   219.7093   333.8288 </r>
       <r>    -3.8788   272.5102   359.4961 </r>
       <r>    -3.7846   278.5116   385.7288 </r>
       <r>    -3.6904   321.8611   416.0444 </r>
       <r>    -3.5962   318.3792   446.0321 </r>
       <r>    -3.5020   325.2377   476.6658 </r>
       <r>    -3.4079   392.9402   513.6763 </r>
       <r>    -3.3137   477.8520   558.6845 </r>
       <r>    -3.2195   505.8207   606.3270 </r>
       <r>    -3.1253   437.9435   647.5763 </r>
       <r>    -3.0311   452.1664   690.1652 </r>
       <r>    -2.9369   326.0209   720.8727 </r>
       <r>    -2.8427   362.9968   755.0628 </r>
       <r>    -2.7485   346.9911   787.7454 </r>
       <r>    -2.6544   410.1327   826.3752 </r>
       <r>    -2.5602   409.4018   864.9362 </r>
       <r>    -2.4660   389.1441   901.5892 </r>
       <r>    -2.3718   429.4685   942.0402 </r>
       <r>    -2.2776   419.7856   981.5792 </r>
       <r>    -2.1834   440.7835  1023.0960 </r>
       <r>    -2.0892   530.5106  1073.0640 </r>
       <r>    -1.9950   616.0251  1131.0866 </r>
       <r>    -1.9008   434.0372  1171.9679 </r>
       <r>    -1.8067   161.7127  1187.1994 </r>
       <r>    -1.7125    69.3138  1193.7280 </r>
       <r>    -1.6183    52.3024  1198.6543 </r>
       <r>    -1.5241    58.5722  1204.1711 </r>
       <r>    -1.4299    59.4402  1209.7697 </r>
       <r>    -1.3357    89.5093  1218.2004 </r>
       <r>    -1.2415    59.4326  1223.7983 </r>
       <r>    -1.1473    35.8430  1227.1743 </r>
       <r>    -1.0531    11.6082  1228.2677 </r>
       <r>    -0.9590    47.8606  1232.7756 </r>
       <r>    -0.8648    37.9815  1236.3530 </r>
       <r>    -0.7706    43.9588  1240.4934 </r>
       <r>    -0.6764    47.1560  1244.9350 </r>
       <r>    -0.5822    57.9659  1250.3947 </r>
       <r>    -0.4880    20.2320  1252.3003 </r>
       <r>    -0.3938    34.9280  1255.5902 </r>
       <r>    -0.2996    37.5550  1259.1274 </r>
       <r>    -0.2054    41.2309  1263.0109 </r>
       <r>    -0.1113    23.6281  1265.2364 </r>
       <r>    -0.0171    35.1240  1268.5447 </r>
       <r>     0.0771    48.7001  1273.1317 </r>
       <r>     0.1713    42.3642  1277.1219 </r>
       <r>     0.2655    12.9820  1278.3447 </r>
       <r>     0.3597    25.6029  1280.7562 </r>
       <r>     0.4539    43.4222  1284.8460 </r>
       <r>     0.5481    34.0101  1288.0494 </r>
       <r>     0.6422    28.5558  1290.7390 </r>
       <r>     0.7364    54.2195  1295.8459 </r>
       <r>     0.8306    35.3789  1299.1782 </r>
       <r>     0.9248    31.3797  1302.1338 </r>
       <r>     1.0190    29.1571  1304.8801 </r>
       <r>     1.1132    29.1035  1307.6213 </r>
       <r>     1.2074    47.1580  1312.0630 </r>
       <r>     1.3016    19.4683  1313.8967 </r>
       <r>     1.3958    20.3340  1315.8120 </r>
       <r>     1.4899    37.1882  1319.3147 </r>
       <r>     1.5841    32.1590  1322.3437 </r>
       <r>     1.6783    27.8641  1324.9681 </r>
       <r>     1.7725    20.3872  1326.8884 </r>
       <r>     1.8667    41.5347  1330.8005 </r>
       <r>     1.9609    37.1834  1334.3027 </r>
       <r>     2.0551    39.3054  1338.0049 </r>
       <r>     2.1493    24.7345  1340.3346 </r>
       <r>     2.2435    37.8388  1343.8985 </r>
       <r>     2.3376    24.6256  1346.2180 </r>
       <r>     2.4318    22.4748  1348.3349 </r>
       <r>     2.5260    14.7308  1349.7223 </r>
       <r>     2.6202    11.8186  1350.8355 </r>
       <r>     2.7144    19.6945  1352.6905 </r>
       <r>     2.8086    32.6127  1355.7623 </r>
       <r>     2.9028    28.0746  1358.4066 </r>
       <r>     2.9970    27.1168  1360.9606 </r>
       <r>     3.0912    19.4485  1362.7925 </r>
       <r>     3.1853    23.4101  1364.9974 </r>
       <r>     3.2795    21.0826  1366.9832 </r>
       <r>     3.3737     8.7251  1367.8050 </r>
       <r>     3.4679    30.6358  1370.6905 </r>
       <r>     3.5621    31.9520  1373.7000 </r>
       <r>     3.6563    27.8298  1376.3213 </r>
       <r>     3.7505     7.1067  1376.9907 </r>
       <r>     3.8447    21.7105  1379.0355 </r>
       <r>     3.9388    44.4291  1383.2203 </r>
       <r>     4.0330    32.5360  1386.2848 </r>
       <r>     4.1272    42.1309  1390.2530 </r>
       <r>     4.2214    50.8845  1395.0458 </r>
       <r>     4.3156    35.2736  1398.3682 </r>
       <r>     4.4098    18.4351  1400.1045 </r>
       <r>     4.5040    23.0839  1402.2788 </r>
       <r>     4.5982    31.7189  1405.2663 </r>
       <r>     4.6924    37.9227  1408.8382 </r>
       <r>     4.7865    40.9383  1412.6941 </r>
       <r>     4.8807    47.7671  1417.1933 </r>
       <r>     4.9749    38.1699  1420.7884 </r>
       <r>     5.0691    40.1420  1424.5694 </r>
       <r>     5.1633    37.1442  1428.0679 </r>
       <r>     5.2575    28.6759  1430.7689 </r>
       <r>     5.3517    59.5619  1436.3789 </r>
       <r>     5.4459    37.2369  1439.8862 </r>
       <r>     5.5401    54.2720  1444.9980 </r>
       <r>     5.6342    33.8749  1448.1886 </r>
       <r>     5.7284    34.0481  1451.3956 </r>
       <r>     5.8226    33.9660  1454.5948 </r>
       <r>     5.9168    33.0374  1457.7065 </r>
       <r>     6.0110    61.5742  1463.5061 </r>
       <r>     6.1052    54.3339  1468.6237 </r>
       <r>     6.1994    44.5412  1472.8190 </r>
       <r>     6.2936    40.3680  1476.6212 </r>
       <r>     6.3878    36.3590  1480.0458 </r>
       <r>     6.4819    51.3214  1484.8797 </r>
       <r>     6.5761    42.8610  1488.9167 </r>
       <r>     6.6703    35.2966  1492.2413 </r>
       <r>     6.7645    37.2610  1495.7508 </r>
       <r>     6.8587    59.3643  1501.3423 </r>
       <r>     6.9529    48.9250  1505.9504 </r>
       <r>     7.0471    36.5798  1509.3958 </r>
       <r>     7.1413    26.7248  1511.9130 </r>
       <r>     7.2354     0.9235  1512.0000 </r>
       <r>     7.3296     0.0001  1512.0000 </r>
       <r>     7.4238     0.0000  1512.0000 </r>
       <r>     7.5180     0.0000  1512.0000 </r>
       <r>     7.6122     0.0000  1512.0000 </r>
       <r>     7.7064     0.0000  1512.0000 </r>
       <r>     7.8006     0.0000  1512.0000 </r>
       <r>     7.8948     0.0000  1512.0000 </r>
       <r>     7.9890     0.0000  1512.0000 </r>
       <r>     8.0831     0.0000  1512.0000 </r>
       <r>     8.1773     0.0000  1512.0000 </r>
       <r>     8.2715     0.0000  1512.0000 </r>
       <r>     8.3657     0.0000  1512.0000 </r>
      </set>
     </set>
    </array>
   </total>
  </dos>
 </calculation>
 <structure name="finalpos" >
  <crystal>
   <varray name="basis" >
    <v>      10.28518105       0.00000000       0.00000000 </v>
    <v>       5.14259052       8.90722807       0.00000000 </v>
    <v>       0.00000000       0.00000000      27.79016876 </v>
   </varray>
   <i name="volume">   2545.92553775 </i>
   <varray name="rec_basis" >
    <v>       0.09722726      -0.05613419       0.00000000 </v>
    <v>       0.00000000       0.11226837       0.00000000 </v>
    <v>       0.00000000       0.00000000       0.03598395 </v>
   </varray>
  </crystal>
  <varray name="positions" >
   <v>       0.00000000       0.00000000       0.22663990 </v>
   <v>       0.00000000       0.50000000       0.22663990 </v>
   <v>       0.50000000       0.00000000       0.22663990 </v>
   <v>       0.50000000       0.50000000       0.22663990 </v>
   <v>       0.00000000       0.25000000       0.22663990 </v>
   <v>       0.00000000       0.75000000       0.22663990 </v>
   <v>       0.50000000       0.25000000       0.22663990 </v>
   <v>       0.50000000       0.75000000       0.22663990 </v>
   <v>       0.25000000       0.00000000       0.22663990 </v>
   <v>       0.25000000       0.50000000       0.22663990 </v>
   <v>       0.75000000       0.00000000       0.22663990 </v>
   <v>       0.75000000       0.50000000       0.22663990 </v>
   <v>       0.25000000       0.25000000       0.22663990 </v>
   <v>       0.25000000       0.75000000       0.22663990 </v>
   <v>       0.75000000       0.25000000       0.22663990 </v>
   <v>       0.75000000       0.75000000       0.22663990 </v>
   <v>       0.16666666       0.16666666       0.30218653 </v>
   <v>       0.16666666       0.66666666       0.30218653 </v>
   <v>       0.66666666       0.16666666       0.30218653 </v>
   <v>       0.66666666       0.66666666       0.30218653 </v>
   <v>       0.16666666       0.41666666       0.30218653 </v>
   <v>       0.16666666       0.91666666       0.30218653 </v>
   <v>       0.66666666       0.41666666       0.30218653 </v>
   <v>       0.66666666       0.91666666       0.30218653 </v>
   <v>       0.41666666       0.16666666       0.30218653 </v>
   <v>       0.41666666       0.66666666       0.30218653 </v>
   <v>       0.91666666       0.16666666       0.30218653 </v>
   <v>       0.91666666       0.66666666       0.30218653 </v>
   <v>       0.41666666       0.41666666       0.30218653 </v>
   <v>       0.41666666       0.91666666       0.30218653 </v>
   <v>       0.91666666       0.41666666       0.30218653 </v>
   <v>       0.91666666       0.91666666       0.30218653 </v>
   <v>       0.08333333       0.08333333       0.37716320 </v>
   <v>       0.08333333       0.58333333       0.37716320 </v>
   <v>       0.58333333       0.08333333       0.37716320 </v>
   <v>       0.58333333       0.58333333       0.37716320 </v>
   <v>       0.08351614       0.33324190       0.37729758 </v>
   <v>       0.08351614       0.83324190       0.37729758 </v>
   <v>       0.58351614       0.33324190       0.37729758 </v>
   <v>       0.58351614       0.83324190       0.37729758 </v>
   <v>       0.33324190       0.08351614       0.37729758 </v>
   <v>       0.33324190       0.58351614       0.37729758 </v>
   <v>       0.83324190       0.08351614       0.37729758 </v>
   <v>       0.83324190       0.58351614       0.37729758 </v>
   <v>       0.33324190       0.33324190       0.37729758 </v>
   <v>       0.33324190       0.83324190       0.37729758 </v>
   <v>       0.83324190       0.33324190       0.37729758 </v>
   <v>       0.83324190       0.83324190       0.37729758 </v>
   <v>       0.00012997       0.00012997       0.45242342 </v>
   <v>       0.00012997       0.50012997       0.45242342 </v>
   <v>       0.50012997       0.00012997       0.45242342 </v>
   <v>       0.50012997       0.50012997       0.45242342 </v>
   <v>       0.00012997       0.24974005       0.45242342 </v>
   <v>       0.00012997       0.74974005       0.45242342 </v>
   <v>       0.50012997       0.24974005       0.45242342 </v>
   <v>       0.50012997       0.74974005       0.45242342 </v>
   <v>       0.24974005       0.00012997       0.45242342 </v>
   <v>       0.24974005       0.50012997       0.45242342 </v>
   <v>       0.74974005       0.00012997       0.45242342 </v>
   <v>       0.74974005       0.50012997       0.45242342 </v>
   <v>       0.25000000       0.25000000       0.45288750 </v>
   <v>       0.25000000       0.75000000       0.45288750 </v>
   <v>       0.75000000       0.25000000       0.45288750 </v>
   <v>       0.75000000       0.75000000       0.45288750 </v>
   <v>       0.16739984       0.16501827       0.52763018 </v>
   <v>       0.16660598       0.66660598       0.52813907 </v>
   <v>       0.66660598       0.16660598       0.52813907 </v>
   <v>       0.66660598       0.66660598       0.52813907 </v>
   <v>       0.16660598       0.41678801       0.52813907 </v>
   <v>       0.16660598       0.91678801       0.52813907 </v>
   <v>       0.66660598       0.41678801       0.52813907 </v>
   <v>       0.66660598       0.91678801       0.52813907 </v>
   <v>       0.41678801       0.16660598       0.52813907 </v>
   <v>       0.41678801       0.66660598       0.52813907 </v>
   <v>       0.91678801       0.16660598       0.52813907 </v>
   <v>       0.91678801       0.66660598       0.52813907 </v>
   <v>       0.41666666       0.41666666       0.52741939 </v>
   <v>       0.41666666       0.91666666       0.52741939 </v>
   <v>       0.91666666       0.41666666       0.52741939 </v>
   <v>       0.91666666       0.91666666       0.52741939 </v>
   <v>       0.08333333       0.08333333       0.60253339 </v>
   <v>       0.08333333       0.58333333       0.60253339 </v>
   <v>       0.58333333       0.08333333       0.60253339 </v>
   <v>       0.58333333       0.58333333       0.60253339 </v>
   <v>       0.08130935       0.33434529       0.60320464 </v>
   <v>       0.08130935       0.83434529       0.60320464 </v>
   <v>       0.58130935       0.33434529       0.60320464 </v>
   <v>       0.58130935       0.83434529       0.60320464 </v>
   <v>       0.33434529       0.08130935       0.60320464 </v>
   <v>       0.33434529       0.58130935       0.60320464 </v>
   <v>       0.83434529       0.08130935       0.60320464 </v>
   <v>       0.83434529       0.58130935       0.60320464 </v>
   <v>       0.33434529       0.33434529       0.60320464 </v>
   <v>       0.33434529       0.83434529       0.60320464 </v>
   <v>       0.83434529       0.33434529       0.60320464 </v>
   <v>       0.83434529       0.83434529       0.60320464 </v>
   <v>       0.49714648       0.49714648       0.68057248 </v>
   <v>       0.49714648       0.99714648       0.68057248 </v>
   <v>       0.99714648       0.49714648       0.68057248 </v>
   <v>       0.99714648       0.99714648       0.68057248 </v>
   <v>       0.49714648       0.25570704       0.68057248 </v>
   <v>       0.49714648       0.75570704       0.68057248 </v>
   <v>       0.99714648       0.25570704       0.68057248 </v>
   <v>       0.99714648       0.75570704       0.68057248 </v>
   <v>       0.25570704       0.49714648       0.68057248 </v>
   <v>       0.25570704       0.99714648       0.68057248 </v>
   <v>       0.75570704       0.49714648       0.68057248 </v>
   <v>       0.75570704       0.99714648       0.68057248 </v>
   <v>       0.25000000       0.25000000       0.67480871 </v>
   <v>       0.25000000       0.75000000       0.67480871 </v>
   <v>       0.75000000       0.25000000       0.67480871 </v>
   <v>       0.75000000       0.75000000       0.67480871 </v>
   <v>       0.08333333       0.08333333       0.72043888 </v>
   <v>       0.08333333       0.58333333       0.72043888 </v>
   <v>       0.58333333       0.08333333       0.72043888 </v>
   <v>       0.58333333       0.58333333       0.72043888 </v>
  </varray>
 </structure>
</modeling>
