<?xml version="1.0" encoding="ISO-8859-1"?>
<modeling>
 <generator>
  <i name="program" type="string">vasp </i>
  <i name="version" type="string">5.4.4.18Apr17-6-g9f103f2a35  </i>
  <i name="subversion" type="string">(build Feb 09 2021 16:27:36) complex            parallel </i>
  <i name="platform" type="string">IFC15_impi </i>
  <i name="date" type="string">2021 04 29 </i>
  <i name="time" type="string">03:37:22 </i>
 </generator>
 <incar>
  <i type="int" name="ISTART">     0</i>
  <i type="string" name="PREC">a</i>
  <i type="logical" name="ADDGRID"> T  </i>
  <i type="int" name="NELM">   300</i>
  <i type="int" name="NELMIN">     5</i>
  <i type="int" name="IBRION">    -1</i>
  <i name="EDIFF">      0.00000100</i>
  <i name="ENCUT">    500.00000000</i>
  <i type="logical" name="LREAL"> F  </i>
  <i type="int" name="ISMEAR">     0</i>
  <i name="SIGMA">      0.05000000</i>
  <i type="logical" name="LWAVE"> F  </i>
  <i type="logical" name="LCHARG"> F  </i>
  <v type="int" name="KPOINT_BSE">    -1     0     0     0</v>
  <i type="int" name="NELM">   300</i>
 </incar>
 <structure name="primitive_cell" >
  <crystal>
   <varray name="basis" >
    <v>      10.28518105       0.00000000       0.00000000 </v>
    <v>       5.14259052       8.90722807       0.00000000 </v>
    <v>       0.00000000       0.00000000      27.79016876 </v>
   </varray>
   <i name="volume">   2545.92553775 </i>
   <varray name="rec_basis" >
    <v>       0.09722726      -0.05613419       0.00000000 </v>
    <v>       0.00000000       0.11226837       0.00000000 </v>
    <v>       0.00000000       0.00000000       0.03598395 </v>
   </varray>
  </crystal>
  <varray name="positions" >
   <v>       0.00000000       0.00000000       0.22663990 </v>
   <v>       0.16666666      -0.08333334       0.30218653 </v>
   <v>      -0.08333334       0.16666666       0.30218653 </v>
   <v>       0.25000000       0.00000000       0.22663990 </v>
   <v>       0.00000000      -0.25000000       0.22663990 </v>
   <v>       0.25000000      -0.25000000       0.22663990 </v>
   <v>      -0.25000000       0.25000000       0.22663990 </v>
   <v>       0.00000000       0.25000000       0.22663990 </v>
   <v>      -0.25000000       0.00000000       0.22663990 </v>
   <v>      -0.08333334      -0.08333334       0.30218653 </v>
   <v>       0.16666666       0.16666666       0.30218653 </v>
   <v>       0.16666666      -0.33333334       0.30218653 </v>
   <v>      -0.33333334       0.16666666       0.30218653 </v>
   <v>       0.08333333       0.08333333       0.37716320 </v>
   <v>       0.08351614      -0.16675810       0.37729758 </v>
   <v>      -0.16675810       0.08351614       0.37729758 </v>
   <v>       0.41666666      -0.08333334       0.30218653 </v>
   <v>      -0.08333334       0.41666666       0.30218653 </v>
   <v>      -0.33333334       0.41666666       0.30218653 </v>
   <v>       0.41666666      -0.33333334       0.30218653 </v>
   <v>      -0.50000000       0.25000000       0.22663990 </v>
   <v>       0.25000000       0.25000000       0.22663990 </v>
   <v>       0.25000000      -0.50000000       0.22663990 </v>
   <v>      -0.25000000      -0.50000000       0.22663990 </v>
   <v>      -0.25000000      -0.25000000       0.22663990 </v>
   <v>      -0.50000000      -0.25000000       0.22663990 </v>
   <v>      -0.08333334      -0.33333334       0.30218653 </v>
   <v>      -0.33333334      -0.08333334       0.30218653 </v>
   <v>       0.33324190      -0.16675810       0.37729758 </v>
   <v>      -0.16675810       0.33324190       0.37729758 </v>
   <v>      -0.16675810      -0.16675810       0.37729758 </v>
   <v>       0.00000000      -0.50000000       0.22663990 </v>
   <v>      -0.50000000      -0.50000000       0.22663990 </v>
   <v>      -0.50000000       0.00000000       0.22663990 </v>
   <v>      -0.41666667       0.08333333       0.37716320 </v>
   <v>       0.08333333      -0.41666667       0.37716320 </v>
   <v>       0.33324190      -0.41648386       0.37729758 </v>
   <v>      -0.41648386       0.33324190       0.37729758 </v>
   <v>       0.33324190       0.08351614       0.37729758 </v>
   <v>       0.08351614       0.33324190       0.37729758 </v>
   <v>       0.16666666       0.41666666       0.30218653 </v>
   <v>       0.41666666       0.16666666       0.30218653 </v>
   <v>       0.41666666       0.41666666       0.30218653 </v>
   <v>       0.00012997       0.00012997       0.45242342 </v>
   <v>      -0.33333334      -0.33333334       0.30218653 </v>
   <v>       0.00012997       0.24974005       0.45242342 </v>
   <v>       0.24974005       0.00012997       0.45242342 </v>
   <v>      -0.25025995       0.00012997       0.45242342 </v>
   <v>       0.00012997      -0.25025995       0.45242342 </v>
   <v>       0.25000000      -0.25000000       0.45288750 </v>
   <v>      -0.25000000       0.25000000       0.45288750 </v>
   <v>      -0.41666667      -0.41666667       0.37716320 </v>
   <v>      -0.41648386      -0.16675810       0.37729758 </v>
   <v>      -0.16675810      -0.41648386       0.37729758 </v>
   <v>       0.33324190       0.33324190       0.37729758 </v>
   <v>       0.24974005      -0.49987003       0.45242342 </v>
   <v>      -0.49987003       0.24974005       0.45242342 </v>
   <v>      -0.49987003      -0.25025995       0.45242342 </v>
   <v>      -0.25025995      -0.49987003       0.45242342 </v>
   <v>       0.25000000       0.25000000       0.45288750 </v>
   <v>      -0.25000000      -0.25000000       0.45288750 </v>
   <v>       0.00012997      -0.49987003       0.45242342 </v>
   <v>      -0.49987003       0.00012997       0.45242342 </v>
   <v>      -0.49987003      -0.49987003       0.45242342 </v>
   <v>      -0.08333334      -0.08333334      -0.47258061 </v>
   <v>      -0.08321199       0.16660598      -0.47186093 </v>
   <v>       0.16660598      -0.08321199      -0.47186093 </v>
   <v>       0.16660598       0.16660598      -0.47186093 </v>
   <v>      -0.33339402       0.16660598      -0.47186093 </v>
   <v>       0.16660598      -0.33339402      -0.47186093 </v>
   <v>       0.41666666      -0.08333334      -0.47258061 </v>
   <v>      -0.08333334       0.41666666      -0.47258061 </v>
   <v>      -0.33339402      -0.08321199      -0.47186093 </v>
   <v>      -0.08321199      -0.33339402      -0.47186093 </v>
   <v>      -0.33339402       0.41678801      -0.47186093 </v>
   <v>       0.41678801      -0.33339402      -0.47186093 </v>
   <v>       0.41666666       0.41666666      -0.47258061 </v>
   <v>       0.16660598       0.41678801      -0.47186093 </v>
   <v>       0.41678801       0.16660598      -0.47186093 </v>
   <v>      -0.33339402      -0.33339402      -0.47186093 </v>
   <v>       0.08333333       0.08333333      -0.39746661 </v>
   <v>      -0.16565471       0.08130935      -0.39679536 </v>
   <v>       0.08130935      -0.16565471      -0.39679536 </v>
   <v>      -0.16565471      -0.16565471      -0.39679536 </v>
   <v>      -0.16565471       0.33434529      -0.39679536 </v>
   <v>       0.33434529      -0.16565471      -0.39679536 </v>
   <v>      -0.41666667       0.08333333      -0.39746661 </v>
   <v>       0.08333333      -0.41666667      -0.39746661 </v>
   <v>       0.08130935       0.33434529      -0.39679536 </v>
   <v>       0.33434529       0.08130935      -0.39679536 </v>
   <v>       0.33434529      -0.41869065      -0.39679536 </v>
   <v>      -0.41869065       0.33434529      -0.39679536 </v>
   <v>      -0.41666667      -0.41666667      -0.39746661 </v>
   <v>      -0.41869065      -0.16565471      -0.39679536 </v>
   <v>      -0.16565471      -0.41869065      -0.39679536 </v>
   <v>       0.33434529       0.33434529      -0.39679536 </v>
   <v>      -0.00285352      -0.00285352      -0.31942752 </v>
   <v>       0.25000000      -0.25000000      -0.32519129 </v>
   <v>      -0.25000000       0.25000000      -0.32519129 </v>
   <v>      -0.24429296      -0.00285352      -0.31942752 </v>
   <v>      -0.00285352      -0.24429296      -0.31942752 </v>
   <v>      -0.00285352       0.25570704      -0.31942752 </v>
   <v>       0.25570704      -0.00285352      -0.31942752 </v>
   <v>       0.25000000       0.25000000      -0.32519129 </v>
   <v>      -0.25000000      -0.25000000      -0.32519129 </v>
   <v>       0.49714648      -0.24429296      -0.31942752 </v>
   <v>      -0.24429296       0.49714648      -0.31942752 </v>
   <v>       0.25570704       0.49714648      -0.31942752 </v>
   <v>       0.49714648       0.25570704      -0.31942752 </v>
   <v>      -0.00285352       0.49714648      -0.31942752 </v>
   <v>       0.49714648      -0.00285352      -0.31942752 </v>
   <v>       0.49714648       0.49714648      -0.31942752 </v>
   <v>       0.08470833       0.08333333      -0.27905223 </v>
   <v>      -0.41666667       0.08333333      -0.27956112 </v>
   <v>       0.08333333      -0.41666667      -0.27956112 </v>
   <v>      -0.41666667      -0.41666667      -0.27956112 </v>
  </varray>
 </structure>
 <varray name="primitive_index" >
  <v type="int" >        1 </v>
  <v type="int" >       22 </v>
  <v type="int" >       27 </v>
  <v type="int" >        9 </v>
  <v type="int" >        6 </v>
  <v type="int" >       14 </v>
  <v type="int" >       15 </v>
  <v type="int" >        5 </v>
  <v type="int" >       11 </v>
  <v type="int" >       32 </v>
  <v type="int" >       17 </v>
  <v type="int" >       18 </v>
  <v type="int" >       19 </v>
  <v type="int" >       33 </v>
  <v type="int" >       38 </v>
  <v type="int" >       43 </v>
  <v type="int" >       30 </v>
  <v type="int" >       31 </v>
  <v type="int" >       23 </v>
  <v type="int" >       26 </v>
  <v type="int" >        7 </v>
  <v type="int" >       13 </v>
  <v type="int" >       10 </v>
  <v type="int" >       12 </v>
  <v type="int" >       16 </v>
  <v type="int" >        8 </v>
  <v type="int" >       28 </v>
  <v type="int" >       24 </v>
  <v type="int" >       46 </v>
  <v type="int" >       47 </v>
  <v type="int" >       48 </v>
  <v type="int" >        2 </v>
  <v type="int" >        4 </v>
  <v type="int" >        3 </v>
  <v type="int" >       35 </v>
  <v type="int" >       34 </v>
  <v type="int" >       42 </v>
  <v type="int" >       39 </v>
  <v type="int" >       41 </v>
  <v type="int" >       37 </v>
  <v type="int" >       21 </v>
  <v type="int" >       25 </v>
  <v type="int" >       29 </v>
  <v type="int" >       49 </v>
  <v type="int" >       20 </v>
  <v type="int" >       53 </v>
  <v type="int" >       57 </v>
  <v type="int" >       59 </v>
  <v type="int" >       54 </v>
  <v type="int" >       62 </v>
  <v type="int" >       63 </v>
  <v type="int" >       36 </v>
  <v type="int" >       40 </v>
  <v type="int" >       44 </v>
  <v type="int" >       45 </v>
  <v type="int" >       58 </v>
  <v type="int" >       55 </v>
  <v type="int" >       56 </v>
  <v type="int" >       60 </v>
  <v type="int" >       61 </v>
  <v type="int" >       64 </v>
  <v type="int" >       50 </v>
  <v type="int" >       51 </v>
  <v type="int" >       52 </v>
  <v type="int" >       80 </v>
  <v type="int" >       75 </v>
  <v type="int" >       70 </v>
  <v type="int" >       65 </v>
  <v type="int" >       67 </v>
  <v type="int" >       66 </v>
  <v type="int" >       78 </v>
  <v type="int" >       79 </v>
  <v type="int" >       72 </v>
  <v type="int" >       76 </v>
  <v type="int" >       71 </v>
  <v type="int" >       74 </v>
  <v type="int" >       77 </v>
  <v type="int" >       69 </v>
  <v type="int" >       73 </v>
  <v type="int" >       68 </v>
  <v type="int" >       81 </v>
  <v type="int" >       91 </v>
  <v type="int" >       86 </v>
  <v type="int" >       96 </v>
  <v type="int" >       95 </v>
  <v type="int" >       94 </v>
  <v type="int" >       83 </v>
  <v type="int" >       82 </v>
  <v type="int" >       85 </v>
  <v type="int" >       89 </v>
  <v type="int" >       90 </v>
  <v type="int" >       87 </v>
  <v type="int" >       84 </v>
  <v type="int" >       88 </v>
  <v type="int" >       92 </v>
  <v type="int" >       93 </v>
  <v type="int" >      100 </v>
  <v type="int" >      110 </v>
  <v type="int" >      111 </v>
  <v type="int" >      108 </v>
  <v type="int" >      104 </v>
  <v type="int" >      103 </v>
  <v type="int" >      106 </v>
  <v type="int" >      109 </v>
  <v type="int" >      112 </v>
  <v type="int" >      102 </v>
  <v type="int" >      107 </v>
  <v type="int" >      105 </v>
  <v type="int" >      101 </v>
  <v type="int" >       99 </v>
  <v type="int" >       98 </v>
  <v type="int" >       97 </v>
  <v type="int" >      113 </v>
  <v type="int" >      115 </v>
  <v type="int" >      114 </v>
  <v type="int" >      116 </v>
 </varray>
 <kpoints>
  <generation param="Gamma">
   <v type="int" name="divisions">       4        4        1 </v>
   <v name="usershift">      0.00000000       0.00000000       0.00000000 </v>
   <v name="genvec1">      0.25000000      -0.00000000       0.00000000 </v>
   <v name="genvec2">      0.00000000       0.25000000       0.00000000 </v>
   <v name="genvec3">      0.00000000       0.00000000       1.00000000 </v>
   <v name="shift">      0.00000000       0.00000000       0.00000000 </v>
  </generation>
  <varray name="kpointlist" >
   <v>       0.00000000       0.00000000       0.00000000 </v>
   <v>       0.25000000      -0.00000000       0.00000000 </v>
   <v>       0.50000000      -0.00000000       0.00000000 </v>
   <v>       0.00000000       0.25000000       0.00000000 </v>
   <v>       0.25000000       0.25000000       0.00000000 </v>
   <v>       0.50000000       0.25000000       0.00000000 </v>
   <v>      -0.25000000       0.25000000       0.00000000 </v>
   <v>       0.00000000       0.50000000       0.00000000 </v>
   <v>       0.25000000       0.50000000       0.00000000 </v>
   <v>       0.50000000       0.50000000       0.00000000 </v>
  </varray>
  <varray name="weights" >
   <v>       0.06250000 </v>
   <v>       0.12500000 </v>
   <v>       0.06250000 </v>
   <v>       0.12500000 </v>
   <v>       0.12500000 </v>
   <v>       0.12500000 </v>
   <v>       0.12500000 </v>
   <v>       0.06250000 </v>
   <v>       0.12500000 </v>
   <v>       0.06250000 </v>
  </varray>
 </kpoints>
 <parameters>
  <separator name="general" >
   <i type="string" name="SYSTEM">unknown system</i>
   <i type="logical" name="LCOMPAT"> F  </i>
  </separator>
  <separator name="electronic" >
   <i type="string" name="PREC">a</i>
   <i name="ENMAX">    500.00000000</i>
   <i name="ENAUG">    605.39200000</i>
   <i name="EDIFF">      0.00000100</i>
   <i type="int" name="IALGO">    38</i>
   <i type="int" name="IWAVPR">    10</i>
   <i type="int" name="NBANDS">   756</i>
   <i name="NELECT">   1256.00000000</i>
   <i type="int" name="TURBO">     0</i>
   <i type="int" name="IRESTART">     0</i>
   <i type="int" name="NREBOOT">     0</i>
   <i type="int" name="NMIN">     0</i>
   <i name="EREF">      0.00000000</i>
   <separator name="electronic smearing" >
    <i type="int" name="ISMEAR">     0</i>
    <i name="SIGMA">      0.05000000</i>
    <i name="KSPACING">      0.50000000</i>
    <i type="logical" name="KGAMMA"> T  </i>
   </separator>
   <separator name="electronic projectors" >
    <i type="logical" name="LREAL"> F  </i>
    <v name="ROPT">      0.00000000      0.00000000</v>
    <i type="int" name="LMAXPAW">  -100</i>
    <i type="int" name="LMAXMIX">     2</i>
    <i type="logical" name="NLSPLINE"> F  </i>
   </separator>
   <separator name="electronic startup" >
    <i type="int" name="ISTART">     0</i>
    <i type="int" name="ICHARG">     2</i>
    <i type="int" name="INIWAV">     1</i>
   </separator>
   <separator name="electronic spin" >
    <i type="int" name="ISPIN">     1</i>
    <i type="logical" name="LNONCOLLINEAR"> F  </i>
    <v name="MAGMOM">      1.00000000      1.00000000      1.00000000      1.00000000      1.00000000      1.00000000      1.00000000      1.00000000      1.00000000      1.00000000      1.00000000      1.00000000      1.00000000      1.00000000      1.00000000      1.00000000      1.00000000      1.00000000      1.00000000      1.00000000
      1.00000000      1.00000000      1.00000000      1.00000000      1.00000000      1.00000000      1.00000000      1.00000000      1.00000000      1.00000000      1.00000000      1.00000000      1.00000000      1.00000000      1.00000000      1.00000000      1.00000000      1.00000000      1.00000000      1.00000000
      1.00000000      1.00000000      1.00000000      1.00000000      1.00000000      1.00000000      1.00000000      1.00000000      1.00000000      1.00000000      1.00000000      1.00000000      1.00000000      1.00000000      1.00000000      1.00000000      1.00000000      1.00000000      1.00000000      1.00000000
      1.00000000      1.00000000      1.00000000      1.00000000      1.00000000      1.00000000      1.00000000      1.00000000      1.00000000      1.00000000      1.00000000      1.00000000      1.00000000      1.00000000      1.00000000      1.00000000      1.00000000      1.00000000      1.00000000      1.00000000
      1.00000000      1.00000000      1.00000000      1.00000000      1.00000000      1.00000000      1.00000000      1.00000000      1.00000000      1.00000000      1.00000000      1.00000000      1.00000000      1.00000000      1.00000000      1.00000000      1.00000000      1.00000000      1.00000000      1.00000000
      1.00000000      1.00000000      1.00000000      1.00000000      1.00000000      1.00000000      1.00000000      1.00000000      1.00000000      1.00000000      1.00000000      1.00000000      1.00000000      1.00000000      1.00000000      1.00000000</v>
    <i name="NUPDOWN">     -1.00000000</i>
    <i type="logical" name="LSORBIT"> F  </i>
    <v name="SAXIS">      0.00000000      0.00000000      1.00000000</v>
    <i type="logical" name="LSPIRAL"> F  </i>
    <v name="QSPIRAL">      0.00000000      0.00000000      0.00000000</v>
    <i type="logical" name="LZEROZ"> F  </i>
   </separator>
   <separator name="electronic exchange-correlation" >
    <i type="logical" name="LASPH"> F  </i>
    <i type="logical" name="LMETAGGA"> F  </i>
   </separator>
   <separator name="electronic convergence" >
    <i type="int" name="NELM">   300</i>
    <i type="int" name="NELMDL">    -5</i>
    <i type="int" name="NELMIN">     5</i>
    <i name="ENINI">    500.00000000</i>
    <separator name="electronic convergence detail" >
     <i type="logical" name="LDIAG"> T  </i>
     <i type="logical" name="LSUBROT"> F  </i>
     <i name="WEIMIN">      0.00000000</i>
     <i name="EBREAK">      0.00000000</i>
     <i name="DEPER">      0.30000000</i>
     <i type="int" name="NRMM">     4</i>
     <i name="TIME">      0.40000000</i>
    </separator>
   </separator>
   <separator name="electronic mixer" >
    <i name="AMIX">      0.40000000</i>
    <i name="BMIX">      1.00000000</i>
    <i name="AMIN">      0.10000000</i>
    <i name="AMIX_MAG">      1.60000000</i>
    <i name="BMIX_MAG">      1.00000000</i>
    <separator name="electronic mixer details" >
     <i type="int" name="IMIX">     4</i>
     <i type="logical" name="MIXFIRST"> F  </i>
     <i type="int" name="MAXMIX">   -45</i>
     <i name="WC">    100.00000000</i>
     <i type="int" name="INIMIX">     1</i>
     <i type="int" name="MIXPRE">     1</i>
     <i type="int" name="MREMOVE">     5</i>
    </separator>
   </separator>
   <separator name="electronic dipolcorrection" >
    <i type="logical" name="LDIPOL"> F  </i>
    <i type="logical" name="LMONO"> F  </i>
    <i type="int" name="IDIPOL">     0</i>
    <i name="EPSILON">      1.00000000</i>
    <v name="DIPOL">   -100.00000000   -100.00000000   -100.00000000</v>
    <i name="EFIELD">      0.00000000</i>
   </separator>
  </separator>
  <separator name="grids" >
   <i type="int" name="NGX">    80</i>
   <i type="int" name="NGY">    80</i>
   <i type="int" name="NGZ">   210</i>
   <i type="int" name="NGXF">   160</i>
   <i type="int" name="NGYF">   160</i>
   <i type="int" name="NGZF">   420</i>
   <i type="logical" name="ADDGRID"> T  </i>
  </separator>
  <separator name="ionic" >
   <i type="int" name="NSW">     0</i>
   <i type="int" name="IBRION">    -1</i>
   <i type="int" name="MDALGO">     0</i>
   <i type="int" name="ISIF">     2</i>
   <i name="PSTRESS">      0.00000000</i>
   <i name="EDIFFG">      0.00001000</i>
   <i type="int" name="NFREE">     0</i>
   <i name="POTIM">      0.50000000</i>
   <i name="SMASS">     -3.00000000</i>
   <i name="SCALEE">      1.00000000</i>
  </separator>
  <separator name="ionic md" >
   <i name="TEBEG">      0.00010000</i>
   <i name="TEEND">      0.00010000</i>
   <i type="int" name="NBLOCK">     1</i>
   <i type="int" name="KBLOCK">     1</i>
   <i type="int" name="NPACO">   256</i>
   <i name="APACO">     16.00000000</i>
  </separator>
  <separator name="symmetry" >
   <i type="int" name="ISYM">     2</i>
   <i name="SYMPREC">      0.00001000</i>
  </separator>
  <separator name="dos" >
   <i type="int" name="LORBIT">     0</i>
   <v name="RWIGS">     -1.00000000     -1.00000000</v>
   <i type="int" name="NEDOS">   301</i>
   <i name="EMIN">     10.00000000</i>
   <i name="EMAX">    -10.00000000</i>
   <i name="EFERMI">      0.00000000</i>
  </separator>
  <separator name="writing" >
   <i type="int" name="NWRITE">     2</i>
   <i type="logical" name="LWAVE"> F  </i>
   <i type="logical" name="LDOWNSAMPLE"> F  </i>
   <i type="logical" name="LCHARG"> F  </i>
   <i type="logical" name="LPARD"> F  </i>
   <i type="logical" name="LVTOT"> F  </i>
   <i type="logical" name="LVHAR"> F  </i>
   <i type="logical" name="LELF"> F  </i>
   <i type="logical" name="LOPTICS"> F  </i>
   <v name="STM">      0.00000000      0.00000000      0.00000000      0.00000000      0.00000000      0.00000000      0.00000000</v>
  </separator>
  <separator name="performance" >
   <i type="int" name="NPAR">     4</i>
   <i type="int" name="NSIM">     4</i>
   <i type="int" name="NBLK">    -1</i>
   <i type="logical" name="LPLANE"> T  </i>
   <i type="logical" name="LSCALAPACK"> F  </i>
   <i type="logical" name="LSCAAWARE"> F  </i>
   <i type="logical" name="LSCALU"> F  </i>
   <i type="logical" name="LASYNC"> F  </i>
   <i type="logical" name="LORBITALREAL"> F  </i>
  </separator>
  <separator name="miscellaneous" >
   <i type="int" name="IDIOT">     3</i>
   <i type="int" name="ISPECIAL">     0</i>
   <i type="logical" name="LMUSIC"> F  </i>
   <v name="POMASS">     63.54600000     16.00000000</v>
   <v name="DARWINR">      0.00000000      0.00000000</v>
   <v name="DARWINV">      1.00000000      1.00000000</v>
   <i type="logical" name="LCORR"> T  </i>
  </separator>
  <i type="logical" name="GGA_COMPAT"> T  </i>
  <i type="logical" name="LBERRY"> F  </i>
  <i type="int" name="ICORELEVEL">     0</i>
  <i type="logical" name="LDAU"> F  </i>
  <i type="int" name="I_CONSTRAINED_M">     0</i>
  <separator name="electronic exchange-correlation" >
   <i type="string" name="GGA">--</i>
   <i type="int" name="VOSKOWN">     0</i>
   <i type="logical" name="LHFCALC"> F  </i>
   <i type="string" name="PRECFOCK"></i>
   <i type="logical" name="LSYMGRAD"> F  </i>
   <i type="logical" name="LHFONE"> F  </i>
   <i type="logical" name="LRHFCALC"> F  </i>
   <i type="logical" name="LTHOMAS"> F  </i>
   <i type="logical" name="LMODELHF"> F  </i>
   <i name="ENCUT4O">     -1.00000000</i>
   <i type="int" name="EXXOEP">     0</i>
   <i type="int" name="FOURORBIT">     0</i>
   <i name="AEXX">      0.00000000</i>
   <i name="HFALPHA">      0.00000000</i>
   <i name="MCALPHA">      0.00000000</i>
   <i name="ALDAX">      1.00000000</i>
   <i name="AGGAX">      1.00000000</i>
   <i name="ALDAC">      1.00000000</i>
   <i name="AGGAC">      1.00000000</i>
   <i type="int" name="NKREDX">     1</i>
   <i type="int" name="NKREDY">     1</i>
   <i type="int" name="NKREDZ">     1</i>
   <i type="logical" name="SHIFTRED"> F  </i>
   <i type="logical" name="ODDONLY"> F  </i>
   <i type="logical" name="EVENONLY"> F  </i>
   <i type="int" name="LMAXFOCK">     0</i>
   <i type="int" name="NMAXFOCKAE">     0</i>
   <i type="logical" name="LFOCKAEDFT"> F  </i>
   <i name="HFSCREEN">      0.00000000</i>
   <i name="HFSCREENC">      0.00000000</i>
   <i type="int" name="NBANDSGWLOW">     0</i>
  </separator>
  <separator name="vdW DFT" >
   <i type="logical" name="LUSE_VDW"> F  </i>
   <i name="Zab_VDW">     -0.84910000</i>
   <i name="PARAM1">      0.12340000</i>
   <i name="PARAM2">      1.00000000</i>
   <i name="PARAM3">      0.00000000</i>
  </separator>
  <separator name="model GW" >
   <i type="int" name="MODEL_GW">     0</i>
   <i name="MODEL_EPS0">     13.16858037</i>
   <i name="MODEL_ALPHA">      1.00000000</i>
  </separator>
  <separator name="linear response parameters" >
   <i type="logical" name="LEPSILON"> F  </i>
   <i type="logical" name="LRPA"> F  </i>
   <i type="logical" name="LNABLA"> F  </i>
   <i type="logical" name="LVEL"> F  </i>
   <i type="int" name="KINTER">     0</i>
   <i name="CSHIFT">      0.10000000</i>
   <i name="OMEGAMAX">     -1.00000000</i>
   <i name="DEG_THRESHOLD">      0.00200000</i>
   <i name="RTIME">     -0.10000000</i>
   <i name="WPLASMAI">      0.00000000</i>
   <v name="DFIELD">      0.00000000      0.00000000      0.00000000</v>
   <v name="WPLASMA">      0.00000000      0.00000000      0.00000000      0.00000000      0.00000000      0.00000000      0.00000000      0.00000000      0.00000000</v>
  </separator>
  <separator name="orbital magnetization" >
   <i type="logical" name="NUCIND"> F  </i>
   <v name="MAGPOS">      0.00000000      0.00000000      0.00000000</v>
   <i type="logical" name="LNICSALL"> T  </i>
   <i type="logical" name="ORBITALMAG"> F  </i>
   <i type="logical" name="LMAGBLOCH"> F  </i>
   <i type="logical" name="LCHIMAG"> F  </i>
   <i type="logical" name="LGAUGE"> T  </i>
   <i type="int" name="MAGATOM">     0</i>
   <v name="MAGDIPOL">      0.00000000      0.00000000      0.00000000</v>
   <v name="AVECCONST">      0.00000000      0.00000000      0.00000000</v>
  </separator>
  <separator name="response functions" >
   <i type="logical" name="LADDER"> F  </i>
   <i type="logical" name="LRPAFORCE"> F  </i>
   <i type="logical" name="LFXC"> F  </i>
   <i type="logical" name="LHARTREE"> T  </i>
   <i type="int" name="IBSE">     0</i>
   <v type="int" name="KPOINT">    -1     0     0     0</v>
   <i type="logical" name="LTCTE"> F  </i>
   <i type="logical" name="LTETE"> F  </i>
   <i type="logical" name="LTRIPLET"> F  </i>
   <i type="logical" name="LFXCEPS"> F  </i>
   <i type="logical" name="LFXHEG"> F  </i>
   <i type="int" name="NATURALO">     2</i>
   <i type="logical" name="L2ORDER"> F  </i>
   <i type="logical" name="LMP2LT"> F  </i>
   <i type="logical" name="LUSEW"> F  </i>
   <i name="ENCUTGW">     -2.00000000</i>
   <i name="ENCUTGWSOFT">     -2.00000000</i>
   <i name="ENCUTLF">     -1.00000000</i>
   <i type="int" name="LMAXMP2">    -1</i>
   <i name="SCISSOR">      0.00000000</i>
   <i type="int" name="NOMEGA">     0</i>
   <i type="int" name="NOMEGAR">     0</i>
   <i type="int" name="NBANDSGW">    -1</i>
   <i type="int" name="NBANDSO">    -1</i>
   <i type="int" name="NBANDSV">    -1</i>
   <i type="int" name="NELM">   300</i>
   <i type="int" name="NELMHF">     1</i>
   <i type="int" name="DIM">     3</i>
   <i type="int" name="ANTIRES">     0</i>
   <i name="OMEGAMAX">    -30.00000000</i>
   <i name="OMEGAMIN">    -30.00000000</i>
   <i name="OMEGATL">   -200.00000000</i>
   <i type="int" name="OMEGAGRID">   140</i>
   <i name="CSHIFT">     -0.10000000</i>
   <i type="logical" name="SELFENERGY"> F  </i>
   <i type="logical" name="LSPECTRAL"> F  </i>
   <i type="logical" name="LSPECTRALGW"> F  </i>
   <i type="logical" name="LSINGLES"> F  </i>
   <i type="logical" name="LFERMIGW"> F  </i>
   <i type="logical" name="ODDONLYGW"> F  </i>
   <i type="logical" name="EVENONLYGW"> F  </i>
   <i type="int" name="NKREDLFX">     1</i>
   <i type="int" name="NKREDLFY">     1</i>
   <i type="int" name="NKREDLFZ">     1</i>
   <i type="int" name="MAXMEM">  2800</i>
   <i type="int" name="TELESCOPE">     0</i>
   <i type="int" name="TAUPAR">     1</i>
   <i type="int" name="OMEGAPAR">    -1</i>
   <i name="LAMBDA">      1.00000000</i>
  </separator>
  <separator name="External order field" >
   <i name="OFIELD_KAPPA">      0.00000000</i>
   <v name="OFIELD_K">      0.00000000      0.00000000      0.00000000</v>
   <i name="OFIELD_Q6_NEAR">      0.00000000</i>
   <i name="OFIELD_Q6_FAR">      0.00000000</i>
   <i name="OFIELD_A">      0.00000000</i>
  </separator>
 </parameters>
 <atominfo>
  <atoms>     116 </atoms>
  <types>       2 </types>
  <array name="atoms" >
   <dimension dim="1">ion</dimension>
   <field type="string">element</field>
   <field type="int">atomtype</field>
   <set>
    <rc><c>Cu</c><c>   1</c></rc>
    <rc><c>Cu</c><c>   1</c></rc>
    <rc><c>Cu</c><c>   1</c></rc>
    <rc><c>Cu</c><c>   1</c></rc>
    <rc><c>Cu</c><c>   1</c></rc>
    <rc><c>Cu</c><c>   1</c></rc>
    <rc><c>Cu</c><c>   1</c></rc>
    <rc><c>Cu</c><c>   1</c></rc>
    <rc><c>Cu</c><c>   1</c></rc>
    <rc><c>Cu</c><c>   1</c></rc>
    <rc><c>Cu</c><c>   1</c></rc>
    <rc><c>Cu</c><c>   1</c></rc>
    <rc><c>Cu</c><c>   1</c></rc>
    <rc><c>Cu</c><c>   1</c></rc>
    <rc><c>Cu</c><c>   1</c></rc>
    <rc><c>Cu</c><c>   1</c></rc>
    <rc><c>Cu</c><c>   1</c></rc>
    <rc><c>Cu</c><c>   1</c></rc>
    <rc><c>Cu</c><c>   1</c></rc>
    <rc><c>Cu</c><c>   1</c></rc>
    <rc><c>Cu</c><c>   1</c></rc>
    <rc><c>Cu</c><c>   1</c></rc>
    <rc><c>Cu</c><c>   1</c></rc>
    <rc><c>Cu</c><c>   1</c></rc>
    <rc><c>Cu</c><c>   1</c></rc>
    <rc><c>Cu</c><c>   1</c></rc>
    <rc><c>Cu</c><c>   1</c></rc>
    <rc><c>Cu</c><c>   1</c></rc>
    <rc><c>Cu</c><c>   1</c></rc>
    <rc><c>Cu</c><c>   1</c></rc>
    <rc><c>Cu</c><c>   1</c></rc>
    <rc><c>Cu</c><c>   1</c></rc>
    <rc><c>Cu</c><c>   1</c></rc>
    <rc><c>Cu</c><c>   1</c></rc>
    <rc><c>Cu</c><c>   1</c></rc>
    <rc><c>Cu</c><c>   1</c></rc>
    <rc><c>Cu</c><c>   1</c></rc>
    <rc><c>Cu</c><c>   1</c></rc>
    <rc><c>Cu</c><c>   1</c></rc>
    <rc><c>Cu</c><c>   1</c></rc>
    <rc><c>Cu</c><c>   1</c></rc>
    <rc><c>Cu</c><c>   1</c></rc>
    <rc><c>Cu</c><c>   1</c></rc>
    <rc><c>Cu</c><c>   1</c></rc>
    <rc><c>Cu</c><c>   1</c></rc>
    <rc><c>Cu</c><c>   1</c></rc>
    <rc><c>Cu</c><c>   1</c></rc>
    <rc><c>Cu</c><c>   1</c></rc>
    <rc><c>Cu</c><c>   1</c></rc>
    <rc><c>Cu</c><c>   1</c></rc>
    <rc><c>Cu</c><c>   1</c></rc>
    <rc><c>Cu</c><c>   1</c></rc>
    <rc><c>Cu</c><c>   1</c></rc>
    <rc><c>Cu</c><c>   1</c></rc>
    <rc><c>Cu</c><c>   1</c></rc>
    <rc><c>Cu</c><c>   1</c></rc>
    <rc><c>Cu</c><c>   1</c></rc>
    <rc><c>Cu</c><c>   1</c></rc>
    <rc><c>Cu</c><c>   1</c></rc>
    <rc><c>Cu</c><c>   1</c></rc>
    <rc><c>Cu</c><c>   1</c></rc>
    <rc><c>Cu</c><c>   1</c></rc>
    <rc><c>Cu</c><c>   1</c></rc>
    <rc><c>Cu</c><c>   1</c></rc>
    <rc><c>Cu</c><c>   1</c></rc>
    <rc><c>Cu</c><c>   1</c></rc>
    <rc><c>Cu</c><c>   1</c></rc>
    <rc><c>Cu</c><c>   1</c></rc>
    <rc><c>Cu</c><c>   1</c></rc>
    <rc><c>Cu</c><c>   1</c></rc>
    <rc><c>Cu</c><c>   1</c></rc>
    <rc><c>Cu</c><c>   1</c></rc>
    <rc><c>Cu</c><c>   1</c></rc>
    <rc><c>Cu</c><c>   1</c></rc>
    <rc><c>Cu</c><c>   1</c></rc>
    <rc><c>Cu</c><c>   1</c></rc>
    <rc><c>Cu</c><c>   1</c></rc>
    <rc><c>Cu</c><c>   1</c></rc>
    <rc><c>Cu</c><c>   1</c></rc>
    <rc><c>Cu</c><c>   1</c></rc>
    <rc><c>Cu</c><c>   1</c></rc>
    <rc><c>Cu</c><c>   1</c></rc>
    <rc><c>Cu</c><c>   1</c></rc>
    <rc><c>Cu</c><c>   1</c></rc>
    <rc><c>Cu</c><c>   1</c></rc>
    <rc><c>Cu</c><c>   1</c></rc>
    <rc><c>Cu</c><c>   1</c></rc>
    <rc><c>Cu</c><c>   1</c></rc>
    <rc><c>Cu</c><c>   1</c></rc>
    <rc><c>Cu</c><c>   1</c></rc>
    <rc><c>Cu</c><c>   1</c></rc>
    <rc><c>Cu</c><c>   1</c></rc>
    <rc><c>Cu</c><c>   1</c></rc>
    <rc><c>Cu</c><c>   1</c></rc>
    <rc><c>Cu</c><c>   1</c></rc>
    <rc><c>Cu</c><c>   1</c></rc>
    <rc><c>Cu</c><c>   1</c></rc>
    <rc><c>Cu</c><c>   1</c></rc>
    <rc><c>Cu</c><c>   1</c></rc>
    <rc><c>Cu</c><c>   1</c></rc>
    <rc><c>Cu</c><c>   1</c></rc>
    <rc><c>Cu</c><c>   1</c></rc>
    <rc><c>Cu</c><c>   1</c></rc>
    <rc><c>Cu</c><c>   1</c></rc>
    <rc><c>Cu</c><c>   1</c></rc>
    <rc><c>Cu</c><c>   1</c></rc>
    <rc><c>Cu</c><c>   1</c></rc>
    <rc><c>Cu</c><c>   1</c></rc>
    <rc><c>Cu</c><c>   1</c></rc>
    <rc><c>Cu</c><c>   1</c></rc>
    <rc><c>Cu</c><c>   1</c></rc>
    <rc><c>Cu</c><c>   1</c></rc>
    <rc><c>O </c><c>   2</c></rc>
    <rc><c>O </c><c>   2</c></rc>
    <rc><c>O </c><c>   2</c></rc>
    <rc><c>O </c><c>   2</c></rc>
   </set>
  </array>
  <array name="atomtypes" >
   <dimension dim="1">type</dimension>
   <field type="int">atomspertype</field>
   <field type="string">element</field>
   <field>mass</field>
   <field>valence</field>
   <field type="string">pseudopotential</field>
   <set>
    <rc><c> 112</c><c>Cu</c><c>     63.54600000</c><c>     11.00000000</c><c> PAW_PBE Cu 05Jan2001                   </c></rc>
    <rc><c>   4</c><c>O </c><c>     16.00000000</c><c>      6.00000000</c><c> PAW_PBE O 08Apr2002                    </c></rc>
   </set>
  </array>
 </atominfo>
 <structure name="initialpos" >
  <crystal>
   <varray name="basis" >
    <v>      10.28518105       0.00000000       0.00000000 </v>
    <v>       5.14259052       8.90722807       0.00000000 </v>
    <v>       0.00000000       0.00000000      27.79016876 </v>
   </varray>
   <i name="volume">   2545.92553775 </i>
   <varray name="rec_basis" >
    <v>       0.09722726      -0.05613419       0.00000000 </v>
    <v>       0.00000000       0.11226837       0.00000000 </v>
    <v>       0.00000000       0.00000000       0.03598395 </v>
   </varray>
  </crystal>
  <varray name="positions" >
   <v>       0.00000000       0.00000000       0.22663990 </v>
   <v>       0.00000000       0.50000000       0.22663990 </v>
   <v>       0.50000000       0.00000000       0.22663990 </v>
   <v>       0.50000000       0.50000000       0.22663990 </v>
   <v>       0.00000000       0.25000000       0.22663990 </v>
   <v>       0.00000000       0.75000000       0.22663990 </v>
   <v>       0.50000000       0.25000000       0.22663990 </v>
   <v>       0.50000000       0.75000000       0.22663990 </v>
   <v>       0.25000000       0.00000000       0.22663990 </v>
   <v>       0.25000000       0.50000000       0.22663990 </v>
   <v>       0.75000000       0.00000000       0.22663990 </v>
   <v>       0.75000000       0.50000000       0.22663990 </v>
   <v>       0.25000000       0.25000000       0.22663990 </v>
   <v>       0.25000000       0.75000000       0.22663990 </v>
   <v>       0.75000000       0.25000000       0.22663990 </v>
   <v>       0.75000000       0.75000000       0.22663990 </v>
   <v>       0.16666666       0.16666666       0.30218653 </v>
   <v>       0.16666666       0.66666666       0.30218653 </v>
   <v>       0.66666666       0.16666666       0.30218653 </v>
   <v>       0.66666666       0.66666666       0.30218653 </v>
   <v>       0.16666666       0.41666666       0.30218653 </v>
   <v>       0.16666666       0.91666666       0.30218653 </v>
   <v>       0.66666666       0.41666666       0.30218653 </v>
   <v>       0.66666666       0.91666666       0.30218653 </v>
   <v>       0.41666666       0.16666666       0.30218653 </v>
   <v>       0.41666666       0.66666666       0.30218653 </v>
   <v>       0.91666666       0.16666666       0.30218653 </v>
   <v>       0.91666666       0.66666666       0.30218653 </v>
   <v>       0.41666666       0.41666666       0.30218653 </v>
   <v>       0.41666666       0.91666666       0.30218653 </v>
   <v>       0.91666666       0.41666666       0.30218653 </v>
   <v>       0.91666666       0.91666666       0.30218653 </v>
   <v>       0.08333333       0.08333333       0.37716320 </v>
   <v>       0.08333333       0.58333333       0.37716320 </v>
   <v>       0.58333333       0.08333333       0.37716320 </v>
   <v>       0.58333333       0.58333333       0.37716320 </v>
   <v>       0.08351614       0.33324190       0.37729758 </v>
   <v>       0.08351614       0.83324190       0.37729758 </v>
   <v>       0.58351614       0.33324190       0.37729758 </v>
   <v>       0.58351614       0.83324190       0.37729758 </v>
   <v>       0.33324190       0.08351614       0.37729758 </v>
   <v>       0.33324190       0.58351614       0.37729758 </v>
   <v>       0.83324190       0.08351614       0.37729758 </v>
   <v>       0.83324190       0.58351614       0.37729758 </v>
   <v>       0.33324190       0.33324190       0.37729758 </v>
   <v>       0.33324190       0.83324190       0.37729758 </v>
   <v>       0.83324190       0.33324190       0.37729758 </v>
   <v>       0.83324190       0.83324190       0.37729758 </v>
   <v>       0.00012997       0.00012997       0.45242342 </v>
   <v>       0.00012997       0.50012997       0.45242342 </v>
   <v>       0.50012997       0.00012997       0.45242342 </v>
   <v>       0.50012997       0.50012997       0.45242342 </v>
   <v>       0.00012997       0.24974005       0.45242342 </v>
   <v>       0.00012997       0.74974005       0.45242342 </v>
   <v>       0.50012997       0.24974005       0.45242342 </v>
   <v>       0.50012997       0.74974005       0.45242342 </v>
   <v>       0.24974005       0.00012997       0.45242342 </v>
   <v>       0.24974005       0.50012997       0.45242342 </v>
   <v>       0.74974005       0.00012997       0.45242342 </v>
   <v>       0.74974005       0.50012997       0.45242342 </v>
   <v>       0.25000000       0.25000000       0.45288750 </v>
   <v>       0.25000000       0.75000000       0.45288750 </v>
   <v>       0.75000000       0.25000000       0.45288750 </v>
   <v>       0.75000000       0.75000000       0.45288750 </v>
   <v>       0.16660598       0.16660598       0.52813907 </v>
   <v>       0.16660598       0.66660598       0.52813907 </v>
   <v>       0.66660598       0.16660598       0.52813907 </v>
   <v>       0.66660598       0.66660598       0.52813907 </v>
   <v>       0.16660598       0.41678801       0.52813907 </v>
   <v>       0.16660598       0.91678801       0.52813907 </v>
   <v>       0.66660598       0.41678801       0.52813907 </v>
   <v>       0.66660598       0.91678801       0.52813907 </v>
   <v>       0.41678801       0.16660598       0.52813907 </v>
   <v>       0.41678801       0.66660598       0.52813907 </v>
   <v>       0.91678801       0.16660598       0.52813907 </v>
   <v>       0.91678801       0.66660598       0.52813907 </v>
   <v>       0.41666666       0.41666666       0.52741939 </v>
   <v>       0.41666666       0.91666666       0.52741939 </v>
   <v>       0.91666666       0.41666666       0.52741939 </v>
   <v>       0.91666666       0.91666666       0.52741939 </v>
   <v>       0.08333333       0.08333333       0.60253339 </v>
   <v>       0.08333333       0.58333333       0.60253339 </v>
   <v>       0.58333333       0.08333333       0.60253339 </v>
   <v>       0.58333333       0.58333333       0.60253339 </v>
   <v>       0.08130935       0.33434529       0.60320464 </v>
   <v>       0.08130935       0.83434529       0.60320464 </v>
   <v>       0.58130935       0.33434529       0.60320464 </v>
   <v>       0.58130935       0.83434529       0.60320464 </v>
   <v>       0.33434529       0.08130935       0.60320464 </v>
   <v>       0.33434529       0.58130935       0.60320464 </v>
   <v>       0.83434529       0.08130935       0.60320464 </v>
   <v>       0.83434529       0.58130935       0.60320464 </v>
   <v>       0.33434529       0.33434529       0.60320464 </v>
   <v>       0.33434529       0.83434529       0.60320464 </v>
   <v>       0.83434529       0.33434529       0.60320464 </v>
   <v>       0.83434529       0.83434529       0.60320464 </v>
   <v>       0.49714648       0.49714648       0.68057248 </v>
   <v>       0.49714648       0.99714648       0.68057248 </v>
   <v>       0.99714648       0.49714648       0.68057248 </v>
   <v>       0.99714648       0.99714648       0.68057248 </v>
   <v>       0.49714648       0.25570704       0.68057248 </v>
   <v>       0.49714648       0.75570704       0.68057248 </v>
   <v>       0.99714648       0.25570704       0.68057248 </v>
   <v>       0.99714648       0.75570704       0.68057248 </v>
   <v>       0.25570704       0.49714648       0.68057248 </v>
   <v>       0.25570704       0.99714648       0.68057248 </v>
   <v>       0.75570704       0.49714648       0.68057248 </v>
   <v>       0.75570704       0.99714648       0.68057248 </v>
   <v>       0.25000000       0.25000000       0.67480871 </v>
   <v>       0.25000000       0.75000000       0.67480871 </v>
   <v>       0.75000000       0.25000000       0.67480871 </v>
   <v>       0.75000000       0.75000000       0.67480871 </v>
   <v>       0.08470833       0.08333333       0.72094777 </v>
   <v>       0.08333333       0.58333333       0.72043888 </v>
   <v>       0.58333333       0.08333333       0.72043888 </v>
   <v>       0.58333333       0.58333333       0.72043888 </v>
  </varray>
 </structure>
 <calculation>
  <scstep>
   <time name="dav">  159.62  159.91</time>
   <time name="total">  160.21  160.52</time>
   <energy>
    <i name="alphaZ">   6463.29446255 </i>
    <i name="ewald"> 664537.48745738 </i>
    <i name="hartreedc">-815292.81423197 </i>
    <i name="XCdc">   5009.39884244 </i>
    <i name="pawpsdc"> 122173.85035501 </i>
    <i name="pawaedc">-138312.01710912 </i>
    <i name="eentropy">     -0.02924046 </i>
    <i name="bandstr">   8852.80750087 </i>
    <i name="atom"> 157518.83071590 </i>
    <i name="e_fr_energy">  10950.80875261 </i>
    <i name="e_wo_entrp">  10950.83799307 </i>
    <i name="e_0_energy">  10950.82337284 </i>
   </energy>
  </scstep>
  <scstep>
   <time name="dav">  155.72  155.96</time>
   <time name="total">  155.75  155.98</time>
   <energy>
    <i name="e_fr_energy">   1073.88555377 </i>
    <i name="e_wo_entrp">   1073.92912416 </i>
    <i name="e_0_energy">   1073.90733896 </i>
   </energy>
  </scstep>
  <scstep>
   <time name="dav">  160.58  160.83</time>
   <time name="total">  160.60  160.85</time>
   <energy>
    <i name="e_fr_energy">   -373.59940044 </i>
    <i name="e_wo_entrp">   -373.53398231 </i>
    <i name="e_0_energy">   -373.56669137 </i>
   </energy>
  </scstep>
  <scstep>
   <time name="dav">  176.43  176.67</time>
   <time name="total">  176.45  176.70</time>
   <energy>
    <i name="e_fr_energy">   -524.82675750 </i>
    <i name="e_wo_entrp">   -524.76344085 </i>
    <i name="e_0_energy">   -524.79509917 </i>
   </energy>
  </scstep>
  <scstep>
   <time name="dav">  165.25  165.48</time>
   <time name="total">  171.26  171.49</time>
   <energy>
    <i name="e_fr_energy">   -530.88797332 </i>
    <i name="e_wo_entrp">   -530.82461930 </i>
    <i name="e_0_energy">   -530.85629631 </i>
   </energy>
  </scstep>
  <scstep>
   <time name="dav">  170.70  170.91</time>
   <time name="total">  175.75  176.00</time>
   <energy>
    <i name="e_fr_energy">   -478.32015086 </i>
    <i name="e_wo_entrp">   -478.26335687 </i>
    <i name="e_0_energy">   -478.29175386 </i>
   </energy>
  </scstep>
  <scstep>
   <time name="dav">  217.60  217.98</time>
   <time name="total">  222.59  223.01</time>
   <energy>
    <i name="e_fr_energy">   -514.03344995 </i>
    <i name="e_wo_entrp">   -513.89999486 </i>
    <i name="e_0_energy">   -513.96672240 </i>
   </energy>
  </scstep>
  <scstep>
   <time name="dav">  193.82  195.34</time>
   <time name="total">  198.86  249.40</time>
   <energy>
    <i name="e_fr_energy">   -445.73560087 </i>
    <i name="e_wo_entrp">   -445.64990724 </i>
    <i name="e_0_energy">   -445.69275406 </i>
   </energy>
  </scstep>
  <scstep>
   <time name="dav">  193.55  195.55</time>
   <time name="total">  198.54  201.37</time>
   <energy>
    <i name="e_fr_energy">   -428.72541220 </i>
    <i name="e_wo_entrp">   -428.68716407 </i>
    <i name="e_0_energy">   -428.70628814 </i>
   </energy>
  </scstep>
  <scstep>
   <time name="dav">  167.89  169.22</time>
   <time name="total">  172.84  174.18</time>
   <energy>
    <i name="e_fr_energy">   -429.37670067 </i>
    <i name="e_wo_entrp">   -429.32363471 </i>
    <i name="e_0_energy">   -429.35016769 </i>
   </energy>
  </scstep>
  <scstep>
   <time name="dav">  169.15  169.84</time>
   <time name="total">  174.14  174.84</time>
   <energy>
    <i name="e_fr_energy">   -427.97356232 </i>
    <i name="e_wo_entrp">   -427.90755450 </i>
    <i name="e_0_energy">   -427.94055841 </i>
   </energy>
  </scstep>
  <scstep>
   <time name="dav">  185.18  185.41</time>
   <time name="total">  190.16  190.39</time>
   <energy>
    <i name="e_fr_energy">   -427.69629042 </i>
    <i name="e_wo_entrp">   -427.64109062 </i>
    <i name="e_0_energy">   -427.66869052 </i>
   </energy>
  </scstep>
  <scstep>
   <time name="dav">  169.25  169.43</time>
   <time name="total">  175.20  175.39</time>
   <energy>
    <i name="e_fr_energy">   -427.64712176 </i>
    <i name="e_wo_entrp">   -427.59226256 </i>
    <i name="e_0_energy">   -427.61969216 </i>
   </energy>
  </scstep>
  <scstep>
   <time name="dav">  165.96  166.15</time>
   <time name="total">  171.64  171.85</time>
   <energy>
    <i name="e_fr_energy">   -427.54267802 </i>
    <i name="e_wo_entrp">   -427.49352439 </i>
    <i name="e_0_energy">   -427.51810120 </i>
   </energy>
  </scstep>
  <scstep>
   <time name="dav">  165.71  165.92</time>
   <time name="total">  170.69  170.91</time>
   <energy>
    <i name="e_fr_energy">   -427.61849862 </i>
    <i name="e_wo_entrp">   -427.57036714 </i>
    <i name="e_0_energy">   -427.59443288 </i>
   </energy>
  </scstep>
  <scstep>
   <time name="dav">  160.95  161.14</time>
   <time name="total">  165.93  166.13</time>
   <energy>
    <i name="e_fr_energy">   -427.51528837 </i>
    <i name="e_wo_entrp">   -427.46589506 </i>
    <i name="e_0_energy">   -427.49059172 </i>
   </energy>
  </scstep>
  <scstep>
   <time name="dav">  164.14  164.34</time>
   <time name="total">  169.71  169.92</time>
   <energy>
    <i name="e_fr_energy">   -427.47946126 </i>
    <i name="e_wo_entrp">   -427.42846163 </i>
    <i name="e_0_energy">   -427.45396144 </i>
   </energy>
  </scstep>
  <scstep>
   <time name="dav">  186.18  186.39</time>
   <time name="total">  191.14  191.35</time>
   <energy>
    <i name="e_fr_energy">   -427.46467216 </i>
    <i name="e_wo_entrp">   -427.41226304 </i>
    <i name="e_0_energy">   -427.43846760 </i>
   </energy>
  </scstep>
  <scstep>
   <time name="dav">  167.69  167.88</time>
   <time name="total">  172.65  172.85</time>
   <energy>
    <i name="e_fr_energy">   -427.46436336 </i>
    <i name="e_wo_entrp">   -427.41136091 </i>
    <i name="e_0_energy">   -427.43786213 </i>
   </energy>
  </scstep>
  <scstep>
   <time name="dav">  161.61  161.80</time>
   <time name="total">  166.64  166.84</time>
   <energy>
    <i name="e_fr_energy">   -427.46501153 </i>
    <i name="e_wo_entrp">   -427.41189123 </i>
    <i name="e_0_energy">   -427.43845138 </i>
   </energy>
  </scstep>
  <scstep>
   <time name="dav">  161.02  161.21</time>
   <time name="total">  166.04  166.23</time>
   <energy>
    <i name="e_fr_energy">   -427.46508899 </i>
    <i name="e_wo_entrp">   -427.41161603 </i>
    <i name="e_0_energy">   -427.43835251 </i>
   </energy>
  </scstep>
  <scstep>
   <time name="dav">  160.81  160.99</time>
   <time name="total">  165.79  165.98</time>
   <energy>
    <i name="e_fr_energy">   -427.46542280 </i>
    <i name="e_wo_entrp">   -427.41205351 </i>
    <i name="e_0_energy">   -427.43873815 </i>
   </energy>
  </scstep>
  <scstep>
   <time name="dav">  154.46  154.64</time>
   <time name="total">  159.42  159.61</time>
   <energy>
    <i name="e_fr_energy">   -427.46536716 </i>
    <i name="e_wo_entrp">   -427.41213324 </i>
    <i name="e_0_energy">   -427.43875020 </i>
   </energy>
  </scstep>
  <scstep>
   <time name="dav">  201.36  201.58</time>
   <time name="total">  206.35  206.57</time>
   <energy>
    <i name="e_fr_energy">   -427.46550038 </i>
    <i name="e_wo_entrp">   -427.41226586 </i>
    <i name="e_0_energy">   -427.43888312 </i>
   </energy>
  </scstep>
  <scstep>
   <time name="dav">  172.99  173.19</time>
   <time name="total">  177.98  178.18</time>
   <energy>
    <i name="e_fr_energy">   -427.46567170 </i>
    <i name="e_wo_entrp">   -427.41247065 </i>
    <i name="e_0_energy">   -427.43907117 </i>
   </energy>
  </scstep>
  <scstep>
   <time name="dav">  180.68  180.94</time>
   <time name="total">  185.66  185.92</time>
   <energy>
    <i name="e_fr_energy">   -427.46589822 </i>
    <i name="e_wo_entrp">   -427.41268439 </i>
    <i name="e_0_energy">   -427.43929130 </i>
   </energy>
  </scstep>
  <scstep>
   <time name="dav">  157.39  157.56</time>
   <time name="total">  162.37  162.56</time>
   <energy>
    <i name="e_fr_energy">   -427.46615027 </i>
    <i name="e_wo_entrp">   -427.41293907 </i>
    <i name="e_0_energy">   -427.43954467 </i>
   </energy>
  </scstep>
  <scstep>
   <time name="dav">  156.13  156.31</time>
   <time name="total">  161.10  161.29</time>
   <energy>
    <i name="e_fr_energy">   -427.46633694 </i>
    <i name="e_wo_entrp">   -427.41315101 </i>
    <i name="e_0_energy">   -427.43974397 </i>
   </energy>
  </scstep>
  <scstep>
   <time name="dav">  153.43  153.60</time>
   <time name="total">  158.41  158.59</time>
   <energy>
    <i name="e_fr_energy">   -427.46649308 </i>
    <i name="e_wo_entrp">   -427.41332758 </i>
    <i name="e_0_energy">   -427.43991033 </i>
   </energy>
  </scstep>
  <scstep>
   <time name="dav">  151.82  152.00</time>
   <time name="total">  156.81  156.99</time>
   <energy>
    <i name="e_fr_energy">   -427.46660411 </i>
    <i name="e_wo_entrp">   -427.41343349 </i>
    <i name="e_0_energy">   -427.44001880 </i>
   </energy>
  </scstep>
  <scstep>
   <time name="dav">  150.30  150.52</time>
   <time name="total">  155.42  155.64</time>
   <energy>
    <i name="e_fr_energy">   -427.46669534 </i>
    <i name="e_wo_entrp">   -427.41350498 </i>
    <i name="e_0_energy">   -427.44010016 </i>
   </energy>
  </scstep>
  <scstep>
   <time name="dav">  145.06  145.23</time>
   <time name="total">  150.05  150.22</time>
   <energy>
    <i name="e_fr_energy">   -427.46675452 </i>
    <i name="e_wo_entrp">   -427.41355191 </i>
    <i name="e_0_energy">   -427.44015321 </i>
   </energy>
  </scstep>
  <scstep>
   <time name="dav">  122.52  122.66</time>
   <time name="total">  127.51  127.65</time>
   <energy>
    <i name="e_fr_energy">   -427.46678243 </i>
    <i name="e_wo_entrp">   -427.41358007 </i>
    <i name="e_0_energy">   -427.44018125 </i>
   </energy>
  </scstep>
  <scstep>
   <time name="dav">  117.97  118.12</time>
   <time name="total">  123.00  123.16</time>
   <energy>
    <i name="e_fr_energy">   -427.46681258 </i>
    <i name="e_wo_entrp">   -427.41362120 </i>
    <i name="e_0_energy">   -427.44021689 </i>
   </energy>
  </scstep>
  <scstep>
   <time name="dav">  115.51  115.64</time>
   <time name="total">  121.46  121.59</time>
   <energy>
    <i name="e_fr_energy">   -427.46682545 </i>
    <i name="e_wo_entrp">   -427.41363544 </i>
    <i name="e_0_energy">   -427.44023045 </i>
   </energy>
  </scstep>
  <scstep>
   <time name="dav">  115.27  115.40</time>
   <time name="total">  120.26  120.39</time>
   <energy>
    <i name="e_fr_energy">   -427.46683596 </i>
    <i name="e_wo_entrp">   -427.41364638 </i>
    <i name="e_0_energy">   -427.44024117 </i>
   </energy>
  </scstep>
  <scstep>
   <time name="dav">  113.27  113.47</time>
   <time name="total">  118.25  118.45</time>
   <energy>
    <i name="e_fr_energy">   -427.46684491 </i>
    <i name="e_wo_entrp">   -427.41365476 </i>
    <i name="e_0_energy">   -427.44024984 </i>
   </energy>
  </scstep>
  <scstep>
   <time name="dav">  111.89  112.03</time>
   <time name="total">  116.88  117.03</time>
   <energy>
    <i name="e_fr_energy">   -427.46684753 </i>
    <i name="e_wo_entrp">   -427.41365646 </i>
    <i name="e_0_energy">   -427.44025199 </i>
   </energy>
  </scstep>
  <scstep>
   <time name="dav">  113.93  114.12</time>
   <time name="total">  118.93  119.13</time>
   <energy>
    <i name="e_fr_energy">   -427.46684945 </i>
    <i name="e_wo_entrp">   -427.41365809 </i>
    <i name="e_0_energy">   -427.44025377 </i>
   </energy>
  </scstep>
  <scstep>
   <time name="dav">  112.45  112.62</time>
   <time name="total">  112.94  113.11</time>
   <energy>
    <i name="alphaZ">   6463.29446255 </i>
    <i name="ewald"> 664537.48745738 </i>
    <i name="hartreedc">-813326.44585481 </i>
    <i name="XCdc">   4896.79480570 </i>
    <i name="pawpsdc"> 123757.41284429 </i>
    <i name="pawaedc">-139974.39048656 </i>
    <i name="eentropy">     -0.05319142 </i>
    <i name="bandstr">  -4300.39760331 </i>
    <i name="atom"> 157518.83071590 </i>
    <i name="e_fr_energy">   -427.46685029 </i>
    <i name="e_wo_entrp">   -427.41365887 </i>
    <i name="e_0_energy">   -427.44025458 </i>
   </energy>
  </scstep>
  <structure>
   <crystal>
    <varray name="basis" >
     <v>      10.28518105       0.00000000       0.00000000 </v>
     <v>       5.14259052       8.90722807       0.00000000 </v>
     <v>       0.00000000       0.00000000      27.79016876 </v>
    </varray>
    <i name="volume">   2545.92553775 </i>
    <varray name="rec_basis" >
     <v>       0.09722726      -0.05613419       0.00000000 </v>
     <v>       0.00000000       0.11226837       0.00000000 </v>
     <v>       0.00000000       0.00000000       0.03598395 </v>
    </varray>
   </crystal>
   <varray name="positions" >
    <v>       0.00000000       0.00000000       0.22663990 </v>
    <v>       0.00000000       0.50000000       0.22663990 </v>
    <v>       0.50000000       0.00000000       0.22663990 </v>
    <v>       0.50000000       0.50000000       0.22663990 </v>
    <v>       0.00000000       0.25000000       0.22663990 </v>
    <v>       0.00000000       0.75000000       0.22663990 </v>
    <v>       0.50000000       0.25000000       0.22663990 </v>
    <v>       0.50000000       0.75000000       0.22663990 </v>
    <v>       0.25000000       0.00000000       0.22663990 </v>
    <v>       0.25000000       0.50000000       0.22663990 </v>
    <v>       0.75000000       0.00000000       0.22663990 </v>
    <v>       0.75000000       0.50000000       0.22663990 </v>
    <v>       0.25000000       0.25000000       0.22663990 </v>
    <v>       0.25000000       0.75000000       0.22663990 </v>
    <v>       0.75000000       0.25000000       0.22663990 </v>
    <v>       0.75000000       0.75000000       0.22663990 </v>
    <v>       0.16666666       0.16666666       0.30218653 </v>
    <v>       0.16666666       0.66666666       0.30218653 </v>
    <v>       0.66666666       0.16666666       0.30218653 </v>
    <v>       0.66666666       0.66666666       0.30218653 </v>
    <v>       0.16666666       0.41666666       0.30218653 </v>
    <v>       0.16666666       0.91666666       0.30218653 </v>
    <v>       0.66666666       0.41666666       0.30218653 </v>
    <v>       0.66666666       0.91666666       0.30218653 </v>
    <v>       0.41666666       0.16666666       0.30218653 </v>
    <v>       0.41666666       0.66666666       0.30218653 </v>
    <v>       0.91666666       0.16666666       0.30218653 </v>
    <v>       0.91666666       0.66666666       0.30218653 </v>
    <v>       0.41666666       0.41666666       0.30218653 </v>
    <v>       0.41666666       0.91666666       0.30218653 </v>
    <v>       0.91666666       0.41666666       0.30218653 </v>
    <v>       0.91666666       0.91666666       0.30218653 </v>
    <v>       0.08333333       0.08333333       0.37716320 </v>
    <v>       0.08333333       0.58333333       0.37716320 </v>
    <v>       0.58333333       0.08333333       0.37716320 </v>
    <v>       0.58333333       0.58333333       0.37716320 </v>
    <v>       0.08351614       0.33324190       0.37729758 </v>
    <v>       0.08351614       0.83324190       0.37729758 </v>
    <v>       0.58351614       0.33324190       0.37729758 </v>
    <v>       0.58351614       0.83324190       0.37729758 </v>
    <v>       0.33324190       0.08351614       0.37729758 </v>
    <v>       0.33324190       0.58351614       0.37729758 </v>
    <v>       0.83324190       0.08351614       0.37729758 </v>
    <v>       0.83324190       0.58351614       0.37729758 </v>
    <v>       0.33324190       0.33324190       0.37729758 </v>
    <v>       0.33324190       0.83324190       0.37729758 </v>
    <v>       0.83324190       0.33324190       0.37729758 </v>
    <v>       0.83324190       0.83324190       0.37729758 </v>
    <v>       0.00012997       0.00012997       0.45242342 </v>
    <v>       0.00012997       0.50012997       0.45242342 </v>
    <v>       0.50012997       0.00012997       0.45242342 </v>
    <v>       0.50012997       0.50012997       0.45242342 </v>
    <v>       0.00012997       0.24974005       0.45242342 </v>
    <v>       0.00012997       0.74974005       0.45242342 </v>
    <v>       0.50012997       0.24974005       0.45242342 </v>
    <v>       0.50012997       0.74974005       0.45242342 </v>
    <v>       0.24974005       0.00012997       0.45242342 </v>
    <v>       0.24974005       0.50012997       0.45242342 </v>
    <v>       0.74974005       0.00012997       0.45242342 </v>
    <v>       0.74974005       0.50012997       0.45242342 </v>
    <v>       0.25000000       0.25000000       0.45288750 </v>
    <v>       0.25000000       0.75000000       0.45288750 </v>
    <v>       0.75000000       0.25000000       0.45288750 </v>
    <v>       0.75000000       0.75000000       0.45288750 </v>
    <v>       0.16660598       0.16660598       0.52813907 </v>
    <v>       0.16660598       0.66660598       0.52813907 </v>
    <v>       0.66660598       0.16660598       0.52813907 </v>
    <v>       0.66660598       0.66660598       0.52813907 </v>
    <v>       0.16660598       0.41678801       0.52813907 </v>
    <v>       0.16660598       0.91678801       0.52813907 </v>
    <v>       0.66660598       0.41678801       0.52813907 </v>
    <v>       0.66660598       0.91678801       0.52813907 </v>
    <v>       0.41678801       0.16660598       0.52813907 </v>
    <v>       0.41678801       0.66660598       0.52813907 </v>
    <v>       0.91678801       0.16660598       0.52813907 </v>
    <v>       0.91678801       0.66660598       0.52813907 </v>
    <v>       0.41666666       0.41666666       0.52741939 </v>
    <v>       0.41666666       0.91666666       0.52741939 </v>
    <v>       0.91666666       0.41666666       0.52741939 </v>
    <v>       0.91666666       0.91666666       0.52741939 </v>
    <v>       0.08333333       0.08333333       0.60253339 </v>
    <v>       0.08333333       0.58333333       0.60253339 </v>
    <v>       0.58333333       0.08333333       0.60253339 </v>
    <v>       0.58333333       0.58333333       0.60253339 </v>
    <v>       0.08130935       0.33434529       0.60320464 </v>
    <v>       0.08130935       0.83434529       0.60320464 </v>
    <v>       0.58130935       0.33434529       0.60320464 </v>
    <v>       0.58130935       0.83434529       0.60320464 </v>
    <v>       0.33434529       0.08130935       0.60320464 </v>
    <v>       0.33434529       0.58130935       0.60320464 </v>
    <v>       0.83434529       0.08130935       0.60320464 </v>
    <v>       0.83434529       0.58130935       0.60320464 </v>
    <v>       0.33434529       0.33434529       0.60320464 </v>
    <v>       0.33434529       0.83434529       0.60320464 </v>
    <v>       0.83434529       0.33434529       0.60320464 </v>
    <v>       0.83434529       0.83434529       0.60320464 </v>
    <v>       0.49714648       0.49714648       0.68057248 </v>
    <v>       0.49714648       0.99714648       0.68057248 </v>
    <v>       0.99714648       0.49714648       0.68057248 </v>
    <v>       0.99714648       0.99714648       0.68057248 </v>
    <v>       0.49714648       0.25570704       0.68057248 </v>
    <v>       0.49714648       0.75570704       0.68057248 </v>
    <v>       0.99714648       0.25570704       0.68057248 </v>
    <v>       0.99714648       0.75570704       0.68057248 </v>
    <v>       0.25570704       0.49714648       0.68057248 </v>
    <v>       0.25570704       0.99714648       0.68057248 </v>
    <v>       0.75570704       0.49714648       0.68057248 </v>
    <v>       0.75570704       0.99714648       0.68057248 </v>
    <v>       0.25000000       0.25000000       0.67480871 </v>
    <v>       0.25000000       0.75000000       0.67480871 </v>
    <v>       0.75000000       0.25000000       0.67480871 </v>
    <v>       0.75000000       0.75000000       0.67480871 </v>
    <v>       0.08470833       0.08333333       0.72094777 </v>
    <v>       0.08333333       0.58333333       0.72043888 </v>
    <v>       0.58333333       0.08333333       0.72043888 </v>
    <v>       0.58333333       0.58333333       0.72043888 </v>
   </varray>
  </structure>
  <varray name="forces" >
   <v>       0.00796896       0.00448249       0.07174676 </v>
   <v>       0.00787476       0.00443634       0.07161293 </v>
   <v>       0.00786729       0.00468943       0.07166095 </v>
   <v>       0.00786196       0.00451095       0.07158687 </v>
   <v>       0.00020267      -0.00920167       0.07160823 </v>
   <v>       0.00000157      -0.00903936       0.07154143 </v>
   <v>       0.00004763      -0.00908075       0.07168125 </v>
   <v>      -0.00006117      -0.00928051       0.07163739 </v>
   <v>      -0.00796952       0.00471683       0.07146998 </v>
   <v>      -0.00786720       0.00456902       0.07177853 </v>
   <v>      -0.00796301       0.00452643       0.07152039 </v>
   <v>      -0.00802010       0.00466963       0.07156834 </v>
   <v>      -0.00005238      -0.00009029       0.08630564 </v>
   <v>       0.00010513       0.00001503       0.08621369 </v>
   <v>      -0.00003022       0.00007882       0.08612484 </v>
   <v>       0.00008973      -0.00000068       0.08634457 </v>
   <v>       0.00696972       0.00401617      -0.07997724 </v>
   <v>       0.00692045       0.00378886      -0.08004470 </v>
   <v>       0.00688001       0.00408122      -0.08005333 </v>
   <v>       0.00694598       0.00402669      -0.07985986 </v>
   <v>       0.00010570      -0.00797230      -0.08003872 </v>
   <v>       0.00001313      -0.00801358      -0.07986820 </v>
   <v>       0.00005530      -0.00819316      -0.08005322 </v>
   <v>      -0.00002761      -0.00816442      -0.07992034 </v>
   <v>      -0.00709480       0.00404002      -0.08004153 </v>
   <v>      -0.00710295       0.00424533      -0.08004740 </v>
   <v>      -0.00690840       0.00399591      -0.07975610 </v>
   <v>      -0.00719575       0.00413904      -0.07998482 </v>
   <v>       0.00002440       0.00000079      -0.05911646 </v>
   <v>       0.00020872      -0.00006117      -0.05903629 </v>
   <v>       0.00010681       0.00013309      -0.05915178 </v>
   <v>      -0.00002258      -0.00007706      -0.05926367 </v>
   <v>       0.00017365      -0.00000193       0.00012406 </v>
   <v>      -0.00006623      -0.00005129       0.00008251 </v>
   <v>      -0.00015531       0.00001598      -0.00007749 </v>
   <v>      -0.00009355       0.00003582      -0.00023797 </v>
   <v>      -0.00008634       0.00004468       0.00006419 </v>
   <v>      -0.00014430       0.00012250       0.00002449 </v>
   <v>       0.00008522       0.00000046       0.00009269 </v>
   <v>       0.00007728       0.00003820      -0.00009727 </v>
   <v>       0.00006809       0.00004269       0.00011191 </v>
   <v>       0.00008111       0.00000003      -0.00000623 </v>
   <v>      -0.00002309      -0.00013686       0.00003474 </v>
   <v>       0.00014054      -0.00002142      -0.00016990 </v>
   <v>       0.00008150       0.00000309      -0.00011564 </v>
   <v>      -0.00001574      -0.00014716       0.00011879 </v>
   <v>      -0.00004924       0.00009173       0.00008131 </v>
   <v>       0.00011209      -0.00001474      -0.00024201 </v>
   <v>       0.00001971       0.00010320       0.00019417 </v>
   <v>       0.00000512      -0.00005422       0.00017109 </v>
   <v>       0.00011248       0.00020508       0.00006445 </v>
   <v>       0.00001604       0.00002555       0.00016476 </v>
   <v>      -0.00015589       0.00000803       0.00027384 </v>
   <v>      -0.00017326       0.00014177       0.00013630 </v>
   <v>      -0.00003406       0.00005492      -0.00006824 </v>
   <v>       0.00002886      -0.00030061      -0.00007479 </v>
   <v>       0.00003996      -0.00011124       0.00036744 </v>
   <v>       0.00010713      -0.00008482      -0.00030114 </v>
   <v>      -0.00013178      -0.00030462       0.00000383 </v>
   <v>      -0.00002871       0.00031346      -0.00010058 </v>
   <v>       0.00000312       0.00005842      -0.00027084 </v>
   <v>      -0.00009443       0.00004868      -0.00018160 </v>
   <v>       0.00008907      -0.00010381      -0.00009360 </v>
   <v>       0.00009059       0.00000069       0.00012258 </v>
   <v>      -0.00011135      -0.00007717      -0.00058812 </v>
   <v>      -0.00016220       0.00010470       0.00028918 </v>
   <v>       0.00012987      -0.00026071       0.00043200 </v>
   <v>       0.00006553       0.00004579       0.00048454 </v>
   <v>      -0.00011435      -0.00000176      -0.00009175 </v>
   <v>       0.00002594      -0.00005500      -0.00048233 </v>
   <v>       0.00034977      -0.00014037       0.00018450 </v>
   <v>      -0.00001534      -0.00012742       0.00010602 </v>
   <v>      -0.00022636      -0.00006727      -0.00034302 </v>
   <v>      -0.00005591       0.00036470      -0.00020966 </v>
   <v>      -0.00020664       0.00013641      -0.00038463 </v>
   <v>      -0.00015413       0.00007923      -0.00027650 </v>
   <v>      -0.00000601      -0.00000003      -0.00013914 </v>
   <v>       0.00024671      -0.00018123      -0.00060185 </v>
   <v>      -0.00006053      -0.00005513      -0.00034862 </v>
   <v>       0.00033460       0.00022429      -0.00009458 </v>
   <v>      -0.00038048      -0.00000184       0.00831940 </v>
   <v>      -0.00036694      -0.00013171       0.00012165 </v>
   <v>      -0.00059506      -0.00007833      -0.00012145 </v>
   <v>      -0.00022749       0.00021201      -0.00037327 </v>
   <v>      -0.00021432      -0.00029221      -0.00023159 </v>
   <v>       0.00111873       0.00066678       0.00166462 </v>
   <v>      -0.00057847       0.00060114      -0.00091881 </v>
   <v>      -0.00060015       0.00049661       0.00019699 </v>
   <v>      -0.00038070      -0.00096541      -0.00055600 </v>
   <v>       0.00047251       0.00005697      -0.00021501 </v>
   <v>       0.00197405       0.00039883       0.00326572 </v>
   <v>       0.00026622      -0.00006305      -0.00026958 </v>
   <v>      -0.00065406      -0.00065602       0.00051246 </v>
   <v>       0.00047347       0.00165170       0.00109311 </v>
   <v>       0.00147852      -0.00146793       0.00301832 </v>
   <v>      -0.00046259      -0.00042435      -0.00071102 </v>
   <v>       0.00024481       0.00053079       0.00009801 </v>
   <v>       0.00393959      -0.00051676      -0.00200977 </v>
   <v>       0.00160769       0.00293627      -0.00091616 </v>
   <v>       0.10966945       0.06643885       0.07981309 </v>
   <v>      -0.00068534      -0.00014749       0.00001003 </v>
   <v>       0.00053225      -0.00138387      -0.00204941 </v>
   <v>      -0.00596284      -0.07164449       0.04614155 </v>
   <v>       0.00078056      -0.00079169       0.00011553 </v>
   <v>      -0.00001259      -0.00039456      -0.00006068 </v>
   <v>      -0.01122811       0.00269202       0.00897861 </v>
   <v>      -0.00037178      -0.00207573      -0.00096461 </v>
   <v>       0.00218909       0.00175890       0.00010573 </v>
   <v>      -0.00178974      -0.00054894       0.00212290 </v>
   <v>      -0.00083771       0.00399011       0.00215992 </v>
   <v>       0.00515741      -0.00346019       0.00227109 </v>
   <v>      -0.00017961       0.00000029       0.00031363 </v>
   <v>      -0.10226206       0.00258252      -0.15854197 </v>
   <v>      -0.00010417      -0.00075044       0.00067495 </v>
   <v>      -0.00141249       0.00033998       0.00043878 </v>
   <v>      -0.00065109       0.00044283       0.00018321 </v>
  </varray>
  <varray name="stress" >
   <v>      -2.18539802      -0.05534577      -0.07602594 </v>
   <v>      -0.05534576      -2.18583191       0.00187056 </v>
   <v>      -0.07602594       0.00187055      -2.30166174 </v>
  </varray>
  <energy>
   <i name="e_fr_energy">   -427.46685029 </i>
   <i name="e_wo_entrp">   -427.44025458 </i>
   <i name="e_0_energy">     -0.05319142 </i>
  </energy>
  <time name="totalsc"> 6781.36 6844.63</time>
  <eigenvalues>
   <array>
    <dimension dim="1">band</dimension>
    <dimension dim="2">kpoint</dimension>
    <dimension dim="3">spin</dimension>
    <field>eigene</field>
    <field>occ</field>
    <set>
     <set comment="spin 1">
      <set comment="kpoint 1">
       <r>  -18.6052    1.0000 </r>
       <r>  -18.5952    1.0000 </r>
       <r>  -18.5952    1.0000 </r>
       <r>  -18.5285    1.0000 </r>
       <r>   -9.4552    1.0000 </r>
       <r>   -8.9627    1.0000 </r>
       <r>   -8.1758    1.0000 </r>
       <r>   -7.6014    1.0000 </r>
       <r>   -7.6010    1.0000 </r>
       <r>   -7.6009    1.0000 </r>
       <r>   -7.5794    1.0000 </r>
       <r>   -7.5794    1.0000 </r>
       <r>   -7.5793    1.0000 </r>
       <r>   -7.2214    1.0000 </r>
       <r>   -7.2201    1.0000 </r>
       <r>   -7.2196    1.0000 </r>
       <r>   -7.2019    1.0000 </r>
       <r>   -7.1474    1.0000 </r>
       <r>   -7.1474    1.0000 </r>
       <r>   -7.1471    1.0000 </r>
       <r>   -6.6289    1.0000 </r>
       <r>   -6.6262    1.0000 </r>
       <r>   -6.6253    1.0000 </r>
       <r>   -6.4872    1.0000 </r>
       <r>   -6.4872    1.0000 </r>
       <r>   -6.4863    1.0000 </r>
       <r>   -6.2530    1.0000 </r>
       <r>   -5.9500    1.0000 </r>
       <r>   -5.9449    1.0000 </r>
       <r>   -5.9441    1.0000 </r>
       <r>   -5.7436    1.0000 </r>
       <r>   -5.7436    1.0000 </r>
       <r>   -5.7410    1.0000 </r>
       <r>   -5.6690    1.0000 </r>
       <r>   -5.6146    1.0000 </r>
       <r>   -5.6145    1.0000 </r>
       <r>   -5.4400    1.0000 </r>
       <r>   -5.4112    1.0000 </r>
       <r>   -5.3917    1.0000 </r>
       <r>   -5.3875    1.0000 </r>
       <r>   -5.3427    1.0000 </r>
       <r>   -5.3330    1.0000 </r>
       <r>   -5.3302    1.0000 </r>
       <r>   -5.3256    1.0000 </r>
       <r>   -5.2842    1.0000 </r>
       <r>   -5.2841    1.0000 </r>
       <r>   -5.2157    1.0000 </r>
       <r>   -5.2103    1.0000 </r>
       <r>   -5.2100    1.0000 </r>
       <r>   -5.1934    1.0000 </r>
       <r>   -5.1362    1.0000 </r>
       <r>   -5.1362    1.0000 </r>
       <r>   -5.1253    1.0000 </r>
       <r>   -5.0572    1.0000 </r>
       <r>   -5.0347    1.0000 </r>
       <r>   -5.0346    1.0000 </r>
       <r>   -5.0053    1.0000 </r>
       <r>   -5.0051    1.0000 </r>
       <r>   -5.0050    1.0000 </r>
       <r>   -4.9798    1.0000 </r>
       <r>   -4.9797    1.0000 </r>
       <r>   -4.9796    1.0000 </r>
       <r>   -4.9644    1.0000 </r>
       <r>   -4.9643    1.0000 </r>
       <r>   -4.9583    1.0000 </r>
       <r>   -4.9577    1.0000 </r>
       <r>   -4.9576    1.0000 </r>
       <r>   -4.9371    1.0000 </r>
       <r>   -4.8843    1.0000 </r>
       <r>   -4.8842    1.0000 </r>
       <r>   -4.8840    1.0000 </r>
       <r>   -4.8554    1.0000 </r>
       <r>   -4.8552    1.0000 </r>
       <r>   -4.8548    1.0000 </r>
       <r>   -4.8426    1.0000 </r>
       <r>   -4.8266    1.0000 </r>
       <r>   -4.8265    1.0000 </r>
       <r>   -4.8127    1.0000 </r>
       <r>   -4.8127    1.0000 </r>
       <r>   -4.8101    1.0000 </r>
       <r>   -4.7510    1.0000 </r>
       <r>   -4.7508    1.0000 </r>
       <r>   -4.7506    1.0000 </r>
       <r>   -4.7080    1.0000 </r>
       <r>   -4.7080    1.0000 </r>
       <r>   -4.7080    1.0000 </r>
       <r>   -4.7049    1.0000 </r>
       <r>   -4.6965    1.0000 </r>
       <r>   -4.6965    1.0000 </r>
       <r>   -4.6233    1.0000 </r>
       <r>   -4.6231    1.0000 </r>
       <r>   -4.6229    1.0000 </r>
       <r>   -4.5879    1.0000 </r>
       <r>   -4.5877    1.0000 </r>
       <r>   -4.5876    1.0000 </r>
       <r>   -4.5841    1.0000 </r>
       <r>   -4.5803    1.0000 </r>
       <r>   -4.5803    1.0000 </r>
       <r>   -4.5475    1.0000 </r>
       <r>   -4.5406    1.0000 </r>
       <r>   -4.5406    1.0000 </r>
       <r>   -4.5403    1.0000 </r>
       <r>   -4.5397    1.0000 </r>
       <r>   -4.5395    1.0000 </r>
       <r>   -4.5300    1.0000 </r>
       <r>   -4.5298    1.0000 </r>
       <r>   -4.5296    1.0000 </r>
       <r>   -4.5059    1.0000 </r>
       <r>   -4.5058    1.0000 </r>
       <r>   -4.5057    1.0000 </r>
       <r>   -4.4626    1.0000 </r>
       <r>   -4.4624    1.0000 </r>
       <r>   -4.4624    1.0000 </r>
       <r>   -4.4567    1.0000 </r>
       <r>   -4.4567    1.0000 </r>
       <r>   -4.4567    1.0000 </r>
       <r>   -4.4485    1.0000 </r>
       <r>   -4.4479    1.0000 </r>
       <r>   -4.4479    1.0000 </r>
       <r>   -4.4072    1.0000 </r>
       <r>   -4.4068    1.0000 </r>
       <r>   -4.4038    1.0000 </r>
       <r>   -4.3897    1.0000 </r>
       <r>   -4.3881    1.0000 </r>
       <r>   -4.3512    1.0000 </r>
       <r>   -4.3506    1.0000 </r>
       <r>   -4.3489    1.0000 </r>
       <r>   -4.3391    1.0000 </r>
       <r>   -4.2446    1.0000 </r>
       <r>   -4.2411    1.0000 </r>
       <r>   -4.2307    1.0000 </r>
       <r>   -4.2306    1.0000 </r>
       <r>   -4.2305    1.0000 </r>
       <r>   -4.2217    1.0000 </r>
       <r>   -4.2215    1.0000 </r>
       <r>   -4.2213    1.0000 </r>
       <r>   -4.2196    1.0000 </r>
       <r>   -4.2194    1.0000 </r>
       <r>   -4.2194    1.0000 </r>
       <r>   -4.2162    1.0000 </r>
       <r>   -4.2161    1.0000 </r>
       <r>   -4.2161    1.0000 </r>
       <r>   -4.2132    1.0000 </r>
       <r>   -4.2131    1.0000 </r>
       <r>   -4.2130    1.0000 </r>
       <r>   -4.1813    1.0000 </r>
       <r>   -4.1813    1.0000 </r>
       <r>   -4.1811    1.0000 </r>
       <r>   -4.0989    1.0000 </r>
       <r>   -4.0985    1.0000 </r>
       <r>   -4.0982    1.0000 </r>
       <r>   -4.0805    1.0000 </r>
       <r>   -4.0804    1.0000 </r>
       <r>   -4.0803    1.0000 </r>
       <r>   -4.0783    1.0000 </r>
       <r>   -4.0782    1.0000 </r>
       <r>   -4.0780    1.0000 </r>
       <r>   -4.0586    1.0000 </r>
       <r>   -4.0585    1.0000 </r>
       <r>   -4.0584    1.0000 </r>
       <r>   -4.0463    1.0000 </r>
       <r>   -4.0459    1.0000 </r>
       <r>   -4.0458    1.0000 </r>
       <r>   -4.0186    1.0000 </r>
       <r>   -4.0064    1.0000 </r>
       <r>   -4.0063    1.0000 </r>
       <r>   -4.0061    1.0000 </r>
       <r>   -3.9715    1.0000 </r>
       <r>   -3.9698    1.0000 </r>
       <r>   -3.9400    1.0000 </r>
       <r>   -3.9398    1.0000 </r>
       <r>   -3.9396    1.0000 </r>
       <r>   -3.9309    1.0000 </r>
       <r>   -3.9308    1.0000 </r>
       <r>   -3.9306    1.0000 </r>
       <r>   -3.9113    1.0000 </r>
       <r>   -3.9111    1.0000 </r>
       <r>   -3.9106    1.0000 </r>
       <r>   -3.8813    1.0000 </r>
       <r>   -3.8811    1.0000 </r>
       <r>   -3.8809    1.0000 </r>
       <r>   -3.8785    1.0000 </r>
       <r>   -3.8781    1.0000 </r>
       <r>   -3.8779    1.0000 </r>
       <r>   -3.8332    1.0000 </r>
       <r>   -3.8329    1.0000 </r>
       <r>   -3.8328    1.0000 </r>
       <r>   -3.8326    1.0000 </r>
       <r>   -3.8140    1.0000 </r>
       <r>   -3.8140    1.0000 </r>
       <r>   -3.8139    1.0000 </r>
       <r>   -3.8004    1.0000 </r>
       <r>   -3.8003    1.0000 </r>
       <r>   -3.8002    1.0000 </r>
       <r>   -3.7882    1.0000 </r>
       <r>   -3.7881    1.0000 </r>
       <r>   -3.7877    1.0000 </r>
       <r>   -3.7766    1.0000 </r>
       <r>   -3.7763    1.0000 </r>
       <r>   -3.7760    1.0000 </r>
       <r>   -3.7526    1.0000 </r>
       <r>   -3.7524    1.0000 </r>
       <r>   -3.7521    1.0000 </r>
       <r>   -3.7110    1.0000 </r>
       <r>   -3.7108    1.0000 </r>
       <r>   -3.7108    1.0000 </r>
       <r>   -3.7091    1.0000 </r>
       <r>   -3.7091    1.0000 </r>
       <r>   -3.7090    1.0000 </r>
       <r>   -3.6843    1.0000 </r>
       <r>   -3.6840    1.0000 </r>
       <r>   -3.6836    1.0000 </r>
       <r>   -3.6788    1.0000 </r>
       <r>   -3.6788    1.0000 </r>
       <r>   -3.6786    1.0000 </r>
       <r>   -3.6701    1.0000 </r>
       <r>   -3.6700    1.0000 </r>
       <r>   -3.6425    1.0000 </r>
       <r>   -3.6421    1.0000 </r>
       <r>   -3.6409    1.0000 </r>
       <r>   -3.6191    1.0000 </r>
       <r>   -3.6176    1.0000 </r>
       <r>   -3.6168    1.0000 </r>
       <r>   -3.6166    1.0000 </r>
       <r>   -3.6046    1.0000 </r>
       <r>   -3.6043    1.0000 </r>
       <r>   -3.6039    1.0000 </r>
       <r>   -3.6029    1.0000 </r>
       <r>   -3.6027    1.0000 </r>
       <r>   -3.6023    1.0000 </r>
       <r>   -3.5993    1.0000 </r>
       <r>   -3.5990    1.0000 </r>
       <r>   -3.5989    1.0000 </r>
       <r>   -3.5831    1.0000 </r>
       <r>   -3.5829    1.0000 </r>
       <r>   -3.5826    1.0000 </r>
       <r>   -3.5525    1.0000 </r>
       <r>   -3.5519    1.0000 </r>
       <r>   -3.5515    1.0000 </r>
       <r>   -3.5394    1.0000 </r>
       <r>   -3.5324    1.0000 </r>
       <r>   -3.5134    1.0000 </r>
       <r>   -3.5132    1.0000 </r>
       <r>   -3.4496    1.0000 </r>
       <r>   -3.4496    1.0000 </r>
       <r>   -3.4495    1.0000 </r>
       <r>   -3.4438    1.0000 </r>
       <r>   -3.4358    1.0000 </r>
       <r>   -3.4356    1.0000 </r>
       <r>   -3.4355    1.0000 </r>
       <r>   -3.4301    1.0000 </r>
       <r>   -3.4300    1.0000 </r>
       <r>   -3.4300    1.0000 </r>
       <r>   -3.4207    1.0000 </r>
       <r>   -3.4206    1.0000 </r>
       <r>   -3.4202    1.0000 </r>
       <r>   -3.4200    1.0000 </r>
       <r>   -3.4198    1.0000 </r>
       <r>   -3.4176    1.0000 </r>
       <r>   -3.4176    1.0000 </r>
       <r>   -3.4176    1.0000 </r>
       <r>   -3.4120    1.0000 </r>
       <r>   -3.4001    1.0000 </r>
       <r>   -3.3998    1.0000 </r>
       <r>   -3.3996    1.0000 </r>
       <r>   -3.3885    1.0000 </r>
       <r>   -3.3885    1.0000 </r>
       <r>   -3.3772    1.0000 </r>
       <r>   -3.3652    1.0000 </r>
       <r>   -3.3652    1.0000 </r>
       <r>   -3.3641    1.0000 </r>
       <r>   -3.3519    1.0000 </r>
       <r>   -3.3519    1.0000 </r>
       <r>   -3.3475    1.0000 </r>
       <r>   -3.3456    1.0000 </r>
       <r>   -3.3442    1.0000 </r>
       <r>   -3.3376    1.0000 </r>
       <r>   -3.3372    1.0000 </r>
       <r>   -3.3366    1.0000 </r>
       <r>   -3.3170    1.0000 </r>
       <r>   -3.3170    1.0000 </r>
       <r>   -3.3065    1.0000 </r>
       <r>   -3.3063    1.0000 </r>
       <r>   -3.3059    1.0000 </r>
       <r>   -3.2744    1.0000 </r>
       <r>   -3.2743    1.0000 </r>
       <r>   -3.2742    1.0000 </r>
       <r>   -3.2702    1.0000 </r>
       <r>   -3.2701    1.0000 </r>
       <r>   -3.2608    1.0000 </r>
       <r>   -3.2604    1.0000 </r>
       <r>   -3.2574    1.0000 </r>
[...]
       <r>   -14.5212     0.0000     8.0000 </r>
       <r>   -14.4270     0.0000     8.0000 </r>
       <r>   -14.3328     0.0000     8.0000 </r>
       <r>   -14.2386     0.0000     8.0000 </r>
       <r>   -14.1444     0.0000     8.0000 </r>
       <r>   -14.0503     0.0000     8.0000 </r>
       <r>   -13.9561     0.0000     8.0000 </r>
       <r>   -13.8619     0.0000     8.0000 </r>
       <r>   -13.7677     0.0000     8.0000 </r>
       <r>   -13.6735     0.0000     8.0000 </r>
       <r>   -13.5794     0.0000     8.0000 </r>
       <r>   -13.4852     0.0000     8.0000 </r>
       <r>   -13.3910     0.0000     8.0000 </r>
       <r>   -13.2968     0.0000     8.0000 </r>
       <r>   -13.2026     0.0000     8.0000 </r>
       <r>   -13.1084     0.0000     8.0000 </r>
       <r>   -13.0143     0.0000     8.0000 </r>
       <r>   -12.9201     0.0000     8.0000 </r>
       <r>   -12.8259     0.0000     8.0000 </r>
       <r>   -12.7317     0.0000     8.0000 </r>
       <r>   -12.6375     0.0000     8.0000 </r>
       <r>   -12.5434     0.0000     8.0000 </r>
       <r>   -12.4492     0.0000     8.0000 </r>
       <r>   -12.3550     0.0000     8.0000 </r>
       <r>   -12.2608     0.0000     8.0000 </r>
       <r>   -12.1666     0.0000     8.0000 </r>
       <r>   -12.0724     0.0000     8.0000 </r>
       <r>   -11.9783     0.0000     8.0000 </r>
       <r>   -11.8841     0.0000     8.0000 </r>
       <r>   -11.7899     0.0000     8.0000 </r>
       <r>   -11.6957     0.0000     8.0000 </r>
       <r>   -11.6015     0.0000     8.0000 </r>
       <r>   -11.5074     0.0000     8.0000 </r>
       <r>   -11.4132     0.0000     8.0000 </r>
       <r>   -11.3190     0.0000     8.0000 </r>
       <r>   -11.2248     0.0000     8.0000 </r>
       <r>   -11.1306     0.0000     8.0000 </r>
       <r>   -11.0364     0.0000     8.0000 </r>
       <r>   -10.9423     0.0000     8.0000 </r>
       <r>   -10.8481     0.0000     8.0000 </r>
       <r>   -10.7539     0.0000     8.0000 </r>
       <r>   -10.6597     0.0000     8.0000 </r>
       <r>   -10.5655     0.0000     8.0000 </r>
       <r>   -10.4714     0.0000     8.0000 </r>
       <r>   -10.3772     0.0000     8.0000 </r>
       <r>   -10.2830     0.0000     8.0000 </r>
       <r>   -10.1888     0.0000     8.0000 </r>
       <r>   -10.0946     0.0000     8.0000 </r>
       <r>   -10.0004     0.0000     8.0000 </r>
       <r>    -9.9063     0.0000     8.0000 </r>
       <r>    -9.8121     0.0000     8.0000 </r>
       <r>    -9.7179     0.0000     8.0000 </r>
       <r>    -9.6237     0.0000     8.0000 </r>
       <r>    -9.5295     0.0235     8.0022 </r>
       <r>    -9.4354     0.9351     8.0903 </r>
       <r>    -9.3412     3.4773     8.4178 </r>
       <r>    -9.2470     4.7868     8.8686 </r>
       <r>    -9.1528     0.3020     8.8971 </r>
       <r>    -9.0586     6.0177     9.4638 </r>
       <r>    -8.9644     6.3476    10.0616 </r>
       <r>    -8.8703     6.3316    10.6580 </r>
       <r>    -8.7761     6.0443    11.2272 </r>
       <r>    -8.6819     0.6004    11.2838 </r>
       <r>    -8.5877    16.1266    12.8026 </r>
       <r>    -8.4935    10.8252    13.8221 </r>
       <r>    -8.3994     6.2168    14.4076 </r>
       <r>    -8.3052     6.0504    14.9775 </r>
       <r>    -8.2110     0.8517    15.0577 </r>
       <r>    -8.1168    13.2712    16.3076 </r>
       <r>    -8.0226    14.5164    17.6748 </r>
       <r>    -7.9284    13.5245    18.9485 </r>
       <r>    -7.8343    19.2260    20.7593 </r>
       <r>    -7.7401     6.8154    21.4012 </r>
       <r>    -7.6459     5.9130    21.9581 </r>
       <r>    -7.5517    13.2575    23.2067 </r>
       <r>    -7.4575    15.8777    24.7021 </r>
       <r>    -7.3634    16.2074    26.2285 </r>
       <r>    -7.2692     9.1524    27.0905 </r>
       <r>    -7.1750    20.4038    29.0122 </r>
       <r>    -7.0808    16.6000    30.5756 </r>
       <r>    -6.9866    12.6507    31.7670 </r>
       <r>    -6.8924    17.2082    33.3877 </r>
       <r>    -6.7983    31.6051    36.3644 </r>
       <r>    -6.7041    15.3653    37.8115 </r>
       <r>    -6.6099    17.9162    39.4989 </r>
       <r>    -6.5157    13.7383    40.7928 </r>
       <r>    -6.4215    24.4601    43.0965 </r>
       <r>    -6.3274    23.4822    45.3081 </r>
       <r>    -6.2332    18.8150    47.0801 </r>
       <r>    -6.1390    46.7001    51.4784 </r>
       <r>    -6.0448    20.9391    53.4505 </r>
       <r>    -5.9506    45.4327    57.7294 </r>
       <r>    -5.8564    21.4874    59.7531 </r>
       <r>    -5.7623    20.0970    61.6459 </r>
       <r>    -5.6681    58.1666    67.1242 </r>
       <r>    -5.5739    86.4807    75.2691 </r>
       <r>    -5.4797    74.2915    82.2660 </r>
       <r>    -5.3855    60.4556    87.9598 </r>
       <r>    -5.2914    96.7206    97.0691 </r>
       <r>    -5.1972    89.9495   105.5407 </r>
       <r>    -5.1030   109.4288   115.8469 </r>
       <r>    -5.0088   119.9344   127.1425 </r>
       <r>    -4.9146   145.6798   140.8629 </r>
       <r>    -4.8204   128.0249   152.9205 </r>
       <r>    -4.7263   126.1179   164.7985 </r>
       <r>    -4.6321   168.6522   180.6825 </r>
       <r>    -4.5379   204.7802   199.9690 </r>
       <r>    -4.4437   242.6911   222.8261 </r>
       <r>    -4.3495   284.4103   249.6124 </r>
       <r>    -4.2554   252.3802   273.3820 </r>
       <r>    -4.1612   220.1233   294.1136 </r>
       <r>    -4.0670   205.8642   313.5022 </r>
       <r>    -3.9728   221.9797   334.4087 </r>
       <r>    -3.8786   271.9823   360.0245 </r>
       <r>    -3.7844   279.3277   386.3320 </r>
       <r>    -3.6903   323.1680   416.7686 </r>
       <r>    -3.5961   318.0458   446.7227 </r>
       <r>    -3.5019   325.5456   477.3832 </r>
       <r>    -3.4077   395.1415   514.5983 </r>
       <r>    -3.3135   478.7148   559.6845 </r>
       <r>    -3.2194   506.0389   607.3441 </r>
       <r>    -3.1252   437.0355   648.5049 </r>
       <r>    -3.0310   450.9424   690.9754 </r>
       <r>    -2.9368   324.1934   721.5086 </r>
       <r>    -2.8426   363.6487   755.7576 </r>
       <r>    -2.7484   347.3702   788.4736 </r>
       <r>    -2.6543   412.1826   827.2937 </r>
       <r>    -2.5601   407.5352   865.6760 </r>
       <r>    -2.4659   390.5569   902.4594 </r>
       <r>    -2.3717   429.7975   942.9385 </r>
       <r>    -2.2775   418.7873   982.3806 </r>
       <r>    -2.1834   443.1238  1024.1148 </r>
       <r>    -2.0892   532.7067  1074.2860 </r>
       <r>    -1.9950   616.4633  1132.3456 </r>
       <r>    -1.9008   427.0639  1172.5673 </r>
       <r>    -1.8066   157.6286  1187.4130 </r>
       <r>    -1.7124    67.8480  1193.8030 </r>
       <r>    -1.6183    52.6522  1198.7619 </r>
       <r>    -1.5241    58.2123  1204.2445 </r>
       <r>    -1.4299    60.4383  1209.9366 </r>
       <r>    -1.3357    88.8311  1218.3029 </r>
       <r>    -1.2415    59.5474  1223.9112 </r>
       <r>    -1.1474    35.0496  1227.2122 </r>
       <r>    -1.0532    11.7273  1228.3167 </r>
       <r>    -0.9590    48.5086  1232.8853 </r>
       <r>    -0.8648    37.9696  1236.4614 </r>
       <r>    -0.7706    43.4739  1240.5558 </r>
       <r>    -0.6764    48.2696  1245.1020 </r>
       <r>    -0.5823    56.7773  1250.4493 </r>
       <r>    -0.4881    20.1054  1252.3429 </r>
       <r>    -0.3939    35.6129  1255.6970 </r>
       <r>    -0.2997    37.2543  1259.2057 </r>
       <r>    -0.2055    41.3605  1263.1011 </r>
       <r>    -0.1114    23.2767  1265.2933 </r>
       <r>    -0.0172    35.4617  1268.6331 </r>
       <r>     0.0770    49.0402  1273.2518 </r>
       <r>     0.1712    41.7350  1277.1825 </r>
       <r>     0.2654    12.7595  1278.3842 </r>
       <r>     0.3596    25.8394  1280.8178 </r>
       <r>     0.4537    43.5736  1284.9217 </r>
       <r>     0.5479    33.8003  1288.1050 </r>
       <r>     0.6421    28.7466  1290.8125 </r>
       <r>     0.7363    54.8216  1295.9756 </r>
       <r>     0.8305    34.7128  1299.2450 </r>
       <r>     0.9246    31.2935  1302.1922 </r>
       <r>     1.0188    29.2010  1304.9424 </r>
       <r>     1.1130    29.2847  1307.7005 </r>
       <r>     1.2072    47.0436  1312.1312 </r>
       <r>     1.3014    18.9697  1313.9178 </r>
       <r>     1.3956    20.6406  1315.8618 </r>
       <r>     1.4897    37.2218  1319.3674 </r>
       <r>     1.5839    32.4001  1322.4189 </r>
       <r>     1.6781    27.4084  1325.0002 </r>
       <r>     1.7723    20.5622  1326.9368 </r>
       <r>     1.8665    41.9580  1330.8885 </r>
       <r>     1.9606    36.9950  1334.3728 </r>
       <r>     2.0548    39.0568  1338.0512 </r>
       <r>     2.1490    24.8901  1340.3954 </r>
       <r>     2.2432    37.8158  1343.9569 </r>
       <r>     2.3374    24.3275  1346.2481 </r>
       <r>     2.4315    22.7246  1348.3884 </r>
       <r>     2.5257    14.2168  1349.7274 </r>
       <r>     2.6199    12.1954  1350.8759 </r>
       <r>     2.7141    19.7116  1352.7324 </r>
       <r>     2.8083    32.7402  1355.8159 </r>
       <r>     2.9025    28.1684  1358.4689 </r>
       <r>     2.9966    26.8197  1360.9948 </r>
       <r>     3.0908    19.3101  1362.8135 </r>
       <r>     3.1850    23.7838  1365.0535 </r>
       <r>     3.2792    20.6309  1366.9965 </r>
       <r>     3.3734     9.1748  1367.8606 </r>
       <r>     3.4675    30.8079  1370.7622 </r>
       <r>     3.5617    31.6247  1373.7406 </r>
       <r>     3.6559    27.8916  1376.3675 </r>
       <r>     3.7501     6.7446  1377.0027 </r>
       <r>     3.8443    22.5548  1379.1270 </r>
       <r>     3.9385    44.4469  1383.3131 </r>
       <r>     4.0326    32.1736  1386.3432 </r>
       <r>     4.1268    42.7032  1390.3651 </r>
       <r>     4.2210    50.1676  1395.0900 </r>
       <r>     4.3152    35.3520  1398.4195 </r>
       <r>     4.4094    18.1914  1400.1328 </r>
       <r>     4.5035    23.2655  1402.3240 </r>
       <r>     4.5977    31.7964  1405.3186 </r>
       <r>     4.6919    37.9121  1408.8892 </r>
       <r>     4.7861    41.5208  1412.7997 </r>
       <r>     4.8803    47.4233  1417.2661 </r>
       <r>     4.9745    37.7692  1420.8233 </r>
       <r>     5.0686    40.2350  1424.6127 </r>
       <r>     5.1628    37.2797  1428.1238 </r>
       <r>     5.2570    28.8561  1430.8415 </r>
       <r>     5.3512    59.2052  1436.4175 </r>
       <r>     5.4454    37.6314  1439.9617 </r>
       <r>     5.5395    53.9184  1445.0399 </r>
       <r>     5.6337    33.8522  1448.2281 </r>
       <r>     5.7279    34.1033  1451.4400 </r>
       <r>     5.8221    33.6654  1454.6107 </r>
       <r>     5.9163    33.6287  1457.7779 </r>
       <r>     6.0105    61.7345  1463.5922 </r>
       <r>     6.1046    54.2920  1468.7055 </r>
       <r>     6.1988    44.0980  1472.8587 </r>
       <r>     6.2930    40.5280  1476.6757 </r>
       <r>     6.3872    36.4962  1480.1130 </r>
       <r>     6.4814    51.1518  1484.9306 </r>
       <r>     6.5755    42.9514  1488.9758 </r>
       <r>     6.6697    35.1496  1492.2863 </r>
       <r>     6.7639    37.2984  1495.7991 </r>
       <r>     6.8581    59.5296  1501.4057 </r>
       <r>     6.9523    48.8046  1506.0022 </r>
       <r>     7.0465    36.7220  1509.4607 </r>
       <r>     7.1406    26.1104  1511.9199 </r>
       <r>     7.2348     0.8508  1512.0000 </r>
       <r>     7.3290     0.0001  1512.0000 </r>
       <r>     7.4232     0.0000  1512.0000 </r>
       <r>     7.5174     0.0000  1512.0000 </r>
       <r>     7.6115     0.0000  1512.0000 </r>
       <r>     7.7057     0.0000  1512.0000 </r>
       <r>     7.7999     0.0000  1512.0000 </r>
       <r>     7.8941     0.0000  1512.0000 </r>
       <r>     7.9883     0.0000  1512.0000 </r>
       <r>     8.0825     0.0000  1512.0000 </r>
       <r>     8.1766     0.0000  1512.0000 </r>
       <r>     8.2708     0.0000  1512.0000 </r>
       <r>     8.3650     0.0000  1512.0000 </r>
      </set>
     </set>
    </array>
   </total>
  </dos>
 </calculation>
 <structure name="finalpos" >
  <crystal>
   <varray name="basis" >
    <v>      10.28518105       0.00000000       0.00000000 </v>
    <v>       5.14259052       8.90722807       0.00000000 </v>
    <v>       0.00000000       0.00000000      27.79016876 </v>
   </varray>
   <i name="volume">   2545.92553775 </i>
   <varray name="rec_basis" >
    <v>       0.09722726      -0.05613419       0.00000000 </v>
    <v>       0.00000000       0.11226837       0.00000000 </v>
    <v>       0.00000000       0.00000000       0.03598395 </v>
   </varray>
  </crystal>
  <varray name="positions" >
   <v>       0.00000000       0.00000000       0.22663990 </v>
   <v>       0.00000000       0.50000000       0.22663990 </v>
   <v>       0.50000000       0.00000000       0.22663990 </v>
   <v>       0.50000000       0.50000000       0.22663990 </v>
   <v>       0.00000000       0.25000000       0.22663990 </v>
   <v>       0.00000000       0.75000000       0.22663990 </v>
   <v>       0.50000000       0.25000000       0.22663990 </v>
   <v>       0.50000000       0.75000000       0.22663990 </v>
   <v>       0.25000000       0.00000000       0.22663990 </v>
   <v>       0.25000000       0.50000000       0.22663990 </v>
   <v>       0.75000000       0.00000000       0.22663990 </v>
   <v>       0.75000000       0.50000000       0.22663990 </v>
   <v>       0.25000000       0.25000000       0.22663990 </v>
   <v>       0.25000000       0.75000000       0.22663990 </v>
   <v>       0.75000000       0.25000000       0.22663990 </v>
   <v>       0.75000000       0.75000000       0.22663990 </v>
   <v>       0.16666666       0.16666666       0.30218653 </v>
   <v>       0.16666666       0.66666666       0.30218653 </v>
   <v>       0.66666666       0.16666666       0.30218653 </v>
   <v>       0.66666666       0.66666666       0.30218653 </v>
   <v>       0.16666666       0.41666666       0.30218653 </v>
   <v>       0.16666666       0.91666666       0.30218653 </v>
   <v>       0.66666666       0.41666666       0.30218653 </v>
   <v>       0.66666666       0.91666666       0.30218653 </v>
   <v>       0.41666666       0.16666666       0.30218653 </v>
   <v>       0.41666666       0.66666666       0.30218653 </v>
   <v>       0.91666666       0.16666666       0.30218653 </v>
   <v>       0.91666666       0.66666666       0.30218653 </v>
   <v>       0.41666666       0.41666666       0.30218653 </v>
   <v>       0.41666666       0.91666666       0.30218653 </v>
   <v>       0.91666666       0.41666666       0.30218653 </v>
   <v>       0.91666666       0.91666666       0.30218653 </v>
   <v>       0.08333333       0.08333333       0.37716320 </v>
   <v>       0.08333333       0.58333333       0.37716320 </v>
   <v>       0.58333333       0.08333333       0.37716320 </v>
   <v>       0.58333333       0.58333333       0.37716320 </v>
   <v>       0.08351614       0.33324190       0.37729758 </v>
   <v>       0.08351614       0.83324190       0.37729758 </v>
   <v>       0.58351614       0.33324190       0.37729758 </v>
   <v>       0.58351614       0.83324190       0.37729758 </v>
   <v>       0.33324190       0.08351614       0.37729758 </v>
   <v>       0.33324190       0.58351614       0.37729758 </v>
   <v>       0.83324190       0.08351614       0.37729758 </v>
   <v>       0.83324190       0.58351614       0.37729758 </v>
   <v>       0.33324190       0.33324190       0.37729758 </v>
   <v>       0.33324190       0.83324190       0.37729758 </v>
   <v>       0.83324190       0.33324190       0.37729758 </v>
   <v>       0.83324190       0.83324190       0.37729758 </v>
   <v>       0.00012997       0.00012997       0.45242342 </v>
   <v>       0.00012997       0.50012997       0.45242342 </v>
   <v>       0.50012997       0.00012997       0.45242342 </v>
   <v>       0.50012997       0.50012997       0.45242342 </v>
   <v>       0.00012997       0.24974005       0.45242342 </v>
   <v>       0.00012997       0.74974005       0.45242342 </v>
   <v>       0.50012997       0.24974005       0.45242342 </v>
   <v>       0.50012997       0.74974005       0.45242342 </v>
   <v>       0.24974005       0.00012997       0.45242342 </v>
   <v>       0.24974005       0.50012997       0.45242342 </v>
   <v>       0.74974005       0.00012997       0.45242342 </v>
   <v>       0.74974005       0.50012997       0.45242342 </v>
   <v>       0.25000000       0.25000000       0.45288750 </v>
   <v>       0.25000000       0.75000000       0.45288750 </v>
   <v>       0.75000000       0.25000000       0.45288750 </v>
   <v>       0.75000000       0.75000000       0.45288750 </v>
   <v>       0.16660598       0.16660598       0.52813907 </v>
   <v>       0.16660598       0.66660598       0.52813907 </v>
   <v>       0.66660598       0.16660598       0.52813907 </v>
   <v>       0.66660598       0.66660598       0.52813907 </v>
   <v>       0.16660598       0.41678801       0.52813907 </v>
   <v>       0.16660598       0.91678801       0.52813907 </v>
   <v>       0.66660598       0.41678801       0.52813907 </v>
   <v>       0.66660598       0.91678801       0.52813907 </v>
   <v>       0.41678801       0.16660598       0.52813907 </v>
   <v>       0.41678801       0.66660598       0.52813907 </v>
   <v>       0.91678801       0.16660598       0.52813907 </v>
   <v>       0.91678801       0.66660598       0.52813907 </v>
   <v>       0.41666666       0.41666666       0.52741939 </v>
   <v>       0.41666666       0.91666666       0.52741939 </v>
   <v>       0.91666666       0.41666666       0.52741939 </v>
   <v>       0.91666666       0.91666666       0.52741939 </v>
   <v>       0.08333333       0.08333333       0.60253339 </v>
   <v>       0.08333333       0.58333333       0.60253339 </v>
   <v>       0.58333333       0.08333333       0.60253339 </v>
   <v>       0.58333333       0.58333333       0.60253339 </v>
   <v>       0.08130935       0.33434529       0.60320464 </v>
   <v>       0.08130935       0.83434529       0.60320464 </v>
   <v>       0.58130935       0.33434529       0.60320464 </v>
   <v>       0.58130935       0.83434529       0.60320464 </v>
   <v>       0.33434529       0.08130935       0.60320464 </v>
   <v>       0.33434529       0.58130935       0.60320464 </v>
   <v>       0.83434529       0.08130935       0.60320464 </v>
   <v>       0.83434529       0.58130935       0.60320464 </v>
   <v>       0.33434529       0.33434529       0.60320464 </v>
   <v>       0.33434529       0.83434529       0.60320464 </v>
   <v>       0.83434529       0.33434529       0.60320464 </v>
   <v>       0.83434529       0.83434529       0.60320464 </v>
   <v>       0.49714648       0.49714648       0.68057248 </v>
   <v>       0.49714648       0.99714648       0.68057248 </v>
   <v>       0.99714648       0.49714648       0.68057248 </v>
   <v>       0.99714648       0.99714648       0.68057248 </v>
   <v>       0.49714648       0.25570704       0.68057248 </v>
   <v>       0.49714648       0.75570704       0.68057248 </v>
   <v>       0.99714648       0.25570704       0.68057248 </v>
   <v>       0.99714648       0.75570704       0.68057248 </v>
   <v>       0.25570704       0.49714648       0.68057248 </v>
   <v>       0.25570704       0.99714648       0.68057248 </v>
   <v>       0.75570704       0.49714648       0.68057248 </v>
   <v>       0.75570704       0.99714648       0.68057248 </v>
   <v>       0.25000000       0.25000000       0.67480871 </v>
   <v>       0.25000000       0.75000000       0.67480871 </v>
   <v>       0.75000000       0.25000000       0.67480871 </v>
   <v>       0.75000000       0.75000000       0.67480871 </v>
   <v>       0.08470833       0.08333333       0.72094777 </v>
   <v>       0.08333333       0.58333333       0.72043888 </v>
   <v>       0.58333333       0.08333333       0.72043888 </v>
   <v>       0.58333333       0.58333333       0.72043888 </v>
  </varray>
 </structure>
</modeling>
