<?xml version="1.0" encoding="ISO-8859-1"?>
<modeling>
 <generator>
  <i name="program" type="string">vasp </i>
  <i name="version" type="string">5.4.4.18Apr17-6-g9f103f2a35  </i>
  <i name="subversion" type="string">(build Feb 09 2021 16:27:36) complex            parallel </i>
  <i name="platform" type="string">IFC15_impi </i>
  <i name="date" type="string">2021 04 29 </i>
  <i name="time" type="string">03:23:23 </i>
 </generator>
 <incar>
  <i type="int" name="ISTART">     0</i>
  <i type="string" name="PREC">a</i>
  <i type="logical" name="ADDGRID"> T  </i>
  <i type="int" name="NELM">   300</i>
  <i type="int" name="NELMIN">     5</i>
  <i type="int" name="IBRION">    -1</i>
  <i name="EDIFF">      0.00000100</i>
  <i name="ENCUT">    500.00000000</i>
  <i type="logical" name="LREAL"> F  </i>
  <i type="int" name="ISMEAR">     0</i>
  <i name="SIGMA">      0.05000000</i>
  <i type="logical" name="LWAVE"> F  </i>
  <i type="logical" name="LCHARG"> F  </i>
  <v type="int" name="KPOINT_BSE">    -1     0     0     0</v>
  <i type="int" name="NELM">   300</i>
 </incar>
 <structure name="primitive_cell" >
  <crystal>
   <varray name="basis" >
    <v>      10.28518105       0.00000000       0.00000000 </v>
    <v>       5.14259052       8.90722807       0.00000000 </v>
    <v>       0.00000000       0.00000000      27.79016876 </v>
   </varray>
   <i name="volume">   2545.92553775 </i>
   <varray name="rec_basis" >
    <v>       0.09722726      -0.05613419       0.00000000 </v>
    <v>       0.00000000       0.11226837       0.00000000 </v>
    <v>       0.00000000       0.00000000       0.03598395 </v>
   </varray>
  </crystal>
  <varray name="positions" >
   <v>       0.00000000       0.00000000       0.22663990 </v>
   <v>       0.16666666      -0.08333334       0.30218653 </v>
   <v>      -0.08333334       0.16666666       0.30218653 </v>
   <v>       0.25000000       0.00000000       0.22663990 </v>
   <v>       0.00000000      -0.25000000       0.22663990 </v>
   <v>       0.25000000      -0.25000000       0.22663990 </v>
   <v>      -0.25000000       0.25000000       0.22663990 </v>
   <v>       0.00000000       0.25000000       0.22663990 </v>
   <v>      -0.25000000       0.00000000       0.22663990 </v>
   <v>      -0.08333334      -0.08333334       0.30218653 </v>
   <v>       0.16666666       0.16666666       0.30218653 </v>
   <v>       0.16666666      -0.33333334       0.30218653 </v>
   <v>      -0.33333334       0.16666666       0.30218653 </v>
   <v>       0.08333333       0.08333333       0.37716320 </v>
   <v>       0.08351614      -0.16675810       0.37729758 </v>
   <v>      -0.16675810       0.08351614       0.37729758 </v>
   <v>       0.41666666      -0.08333334       0.30218653 </v>
   <v>      -0.08333334       0.41666666       0.30218653 </v>
   <v>      -0.33333334       0.41666666       0.30218653 </v>
   <v>       0.41666666      -0.33333334       0.30218653 </v>
   <v>      -0.50000000       0.25000000       0.22663990 </v>
   <v>       0.25000000       0.25000000       0.22663990 </v>
   <v>       0.25000000      -0.50000000       0.22663990 </v>
   <v>      -0.25000000      -0.50000000       0.22663990 </v>
   <v>      -0.25000000      -0.25000000       0.22663990 </v>
   <v>      -0.50000000      -0.25000000       0.22663990 </v>
   <v>      -0.08333334      -0.33333334       0.30218653 </v>
   <v>      -0.33333334      -0.08333334       0.30218653 </v>
   <v>       0.33324190      -0.16675810       0.37729758 </v>
   <v>      -0.16675810       0.33324190       0.37729758 </v>
   <v>      -0.16675810      -0.16675810       0.37729758 </v>
   <v>       0.00000000      -0.50000000       0.22663990 </v>
   <v>      -0.50000000      -0.50000000       0.22663990 </v>
   <v>      -0.50000000       0.00000000       0.22663990 </v>
   <v>      -0.41666667       0.08333333       0.37716320 </v>
   <v>       0.08333333      -0.41666667       0.37716320 </v>
   <v>       0.33324190      -0.41648386       0.37729758 </v>
   <v>      -0.41648386       0.33324190       0.37729758 </v>
   <v>       0.33324190       0.08351614       0.37729758 </v>
   <v>       0.08351614       0.33324190       0.37729758 </v>
   <v>       0.16666666       0.41666666       0.30218653 </v>
   <v>       0.41666666       0.16666666       0.30218653 </v>
   <v>       0.41666666       0.41666666       0.30218653 </v>
   <v>       0.00012997       0.00012997       0.45242342 </v>
   <v>      -0.33333334      -0.33333334       0.30218653 </v>
   <v>       0.00012997       0.24974005       0.45242342 </v>
   <v>       0.24974005       0.00012997       0.45242342 </v>
   <v>      -0.25025995       0.00012997       0.45242342 </v>
   <v>       0.00012997      -0.25025995       0.45242342 </v>
   <v>       0.25000000      -0.25000000       0.45288750 </v>
   <v>      -0.25000000       0.25000000       0.45288750 </v>
   <v>      -0.41666667      -0.41666667       0.37716320 </v>
   <v>      -0.41648386      -0.16675810       0.37729758 </v>
   <v>      -0.16675810      -0.41648386       0.37729758 </v>
   <v>       0.33324190       0.33324190       0.37729758 </v>
   <v>       0.24974005      -0.49987003       0.45242342 </v>
   <v>      -0.49987003       0.24974005       0.45242342 </v>
   <v>      -0.49987003      -0.25025995       0.45242342 </v>
   <v>      -0.25025995      -0.49987003       0.45242342 </v>
   <v>       0.25000000       0.25000000       0.45288750 </v>
   <v>      -0.25000000      -0.25000000       0.45288750 </v>
   <v>       0.00012997      -0.49987003       0.45242342 </v>
   <v>      -0.49987003       0.00012997       0.45242342 </v>
   <v>      -0.49987003      -0.49987003       0.45242342 </v>
   <v>      -0.08333334      -0.08333334      -0.47258061 </v>
   <v>      -0.08321199       0.16660598      -0.47186093 </v>
   <v>       0.16660598      -0.08321199      -0.47186093 </v>
   <v>       0.16660598       0.16660598      -0.47186093 </v>
   <v>      -0.33339402       0.16660598      -0.47186093 </v>
   <v>       0.16660598      -0.33339402      -0.47186093 </v>
   <v>       0.41666666      -0.08333334      -0.47258061 </v>
   <v>      -0.08333334       0.41666666      -0.47258061 </v>
   <v>      -0.33339402      -0.08321199      -0.47186093 </v>
   <v>      -0.08321199      -0.33339402      -0.47186093 </v>
   <v>      -0.33339402       0.41678801      -0.47186093 </v>
   <v>       0.41678801      -0.33339402      -0.47186093 </v>
   <v>       0.41666666       0.41666666      -0.47258061 </v>
   <v>       0.16660598       0.41678801      -0.47186093 </v>
   <v>       0.41678801       0.16660598      -0.47186093 </v>
   <v>      -0.33339402      -0.33339402      -0.47186093 </v>
   <v>       0.08333333       0.08333333      -0.39746661 </v>
   <v>      -0.16565471       0.08130935      -0.39679536 </v>
   <v>       0.08130935      -0.16565471      -0.39679536 </v>
   <v>      -0.16565471      -0.16565471      -0.39679536 </v>
   <v>      -0.16565471       0.33434529      -0.39679536 </v>
   <v>       0.33434529      -0.16565471      -0.39679536 </v>
   <v>      -0.41666667       0.08333333      -0.39746661 </v>
   <v>       0.08333333      -0.41666667      -0.39746661 </v>
   <v>       0.33434529       0.08130935      -0.39679536 </v>
   <v>       0.33434529      -0.41869065      -0.39679536 </v>
   <v>      -0.41869065       0.33434529      -0.39679536 </v>
   <v>       0.08051549       0.33593300      -0.39628647 </v>
   <v>      -0.41666667      -0.41666667      -0.39746661 </v>
   <v>      -0.41869065      -0.16565471      -0.39679536 </v>
   <v>      -0.16565471      -0.41869065      -0.39679536 </v>
   <v>       0.33434529       0.33434529      -0.39679536 </v>
   <v>      -0.00285352      -0.00285352      -0.31942752 </v>
   <v>       0.25000000      -0.25000000      -0.32519129 </v>
   <v>      -0.25000000       0.25000000      -0.32519129 </v>
   <v>      -0.24429296      -0.00285352      -0.31942752 </v>
   <v>      -0.00285352      -0.24429296      -0.31942752 </v>
   <v>      -0.00285352       0.25570704      -0.31942752 </v>
   <v>       0.25570704      -0.00285352      -0.31942752 </v>
   <v>       0.25000000       0.25000000      -0.32519129 </v>
   <v>      -0.25000000      -0.25000000      -0.32519129 </v>
   <v>       0.49714648      -0.24429296      -0.31942752 </v>
   <v>      -0.24429296       0.49714648      -0.31942752 </v>
   <v>       0.25570704       0.49714648      -0.31942752 </v>
   <v>       0.49714648       0.25570704      -0.31942752 </v>
   <v>      -0.00285352       0.49714648      -0.31942752 </v>
   <v>       0.49714648      -0.00285352      -0.31942752 </v>
   <v>       0.49714648       0.49714648      -0.31942752 </v>
   <v>       0.08333333       0.08333333      -0.27956112 </v>
   <v>      -0.41666667       0.08333333      -0.27956112 </v>
   <v>       0.08333333      -0.41666667      -0.27956112 </v>
   <v>      -0.41666667      -0.41666667      -0.27956112 </v>
  </varray>
 </structure>
 <varray name="primitive_index" >
  <v type="int" >        1 </v>
  <v type="int" >       22 </v>
  <v type="int" >       27 </v>
  <v type="int" >        9 </v>
  <v type="int" >        6 </v>
  <v type="int" >       14 </v>
  <v type="int" >       15 </v>
  <v type="int" >        5 </v>
  <v type="int" >       11 </v>
  <v type="int" >       32 </v>
  <v type="int" >       17 </v>
  <v type="int" >       18 </v>
  <v type="int" >       19 </v>
  <v type="int" >       33 </v>
  <v type="int" >       38 </v>
  <v type="int" >       43 </v>
  <v type="int" >       30 </v>
  <v type="int" >       31 </v>
  <v type="int" >       23 </v>
  <v type="int" >       26 </v>
  <v type="int" >        7 </v>
  <v type="int" >       13 </v>
  <v type="int" >       10 </v>
  <v type="int" >       12 </v>
  <v type="int" >       16 </v>
  <v type="int" >        8 </v>
  <v type="int" >       28 </v>
  <v type="int" >       24 </v>
  <v type="int" >       46 </v>
  <v type="int" >       47 </v>
  <v type="int" >       48 </v>
  <v type="int" >        2 </v>
  <v type="int" >        4 </v>
  <v type="int" >        3 </v>
  <v type="int" >       35 </v>
  <v type="int" >       34 </v>
  <v type="int" >       42 </v>
  <v type="int" >       39 </v>
  <v type="int" >       41 </v>
  <v type="int" >       37 </v>
  <v type="int" >       21 </v>
  <v type="int" >       25 </v>
  <v type="int" >       29 </v>
  <v type="int" >       49 </v>
  <v type="int" >       20 </v>
  <v type="int" >       53 </v>
  <v type="int" >       57 </v>
  <v type="int" >       59 </v>
  <v type="int" >       54 </v>
  <v type="int" >       62 </v>
  <v type="int" >       63 </v>
  <v type="int" >       36 </v>
  <v type="int" >       40 </v>
  <v type="int" >       44 </v>
  <v type="int" >       45 </v>
  <v type="int" >       58 </v>
  <v type="int" >       55 </v>
  <v type="int" >       56 </v>
  <v type="int" >       60 </v>
  <v type="int" >       61 </v>
  <v type="int" >       64 </v>
  <v type="int" >       50 </v>
  <v type="int" >       51 </v>
  <v type="int" >       52 </v>
  <v type="int" >       80 </v>
  <v type="int" >       75 </v>
  <v type="int" >       70 </v>
  <v type="int" >       65 </v>
  <v type="int" >       67 </v>
  <v type="int" >       66 </v>
  <v type="int" >       78 </v>
  <v type="int" >       79 </v>
  <v type="int" >       72 </v>
  <v type="int" >       76 </v>
  <v type="int" >       71 </v>
  <v type="int" >       74 </v>
  <v type="int" >       77 </v>
  <v type="int" >       69 </v>
  <v type="int" >       73 </v>
  <v type="int" >       68 </v>
  <v type="int" >       81 </v>
  <v type="int" >       91 </v>
  <v type="int" >       86 </v>
  <v type="int" >       96 </v>
  <v type="int" >       95 </v>
  <v type="int" >       94 </v>
  <v type="int" >       83 </v>
  <v type="int" >       82 </v>
  <v type="int" >       89 </v>
  <v type="int" >       90 </v>
  <v type="int" >       87 </v>
  <v type="int" >       85 </v>
  <v type="int" >       84 </v>
  <v type="int" >       88 </v>
  <v type="int" >       92 </v>
  <v type="int" >       93 </v>
  <v type="int" >      100 </v>
  <v type="int" >      110 </v>
  <v type="int" >      111 </v>
  <v type="int" >      108 </v>
  <v type="int" >      104 </v>
  <v type="int" >      103 </v>
  <v type="int" >      106 </v>
  <v type="int" >      109 </v>
  <v type="int" >      112 </v>
  <v type="int" >      102 </v>
  <v type="int" >      107 </v>
  <v type="int" >      105 </v>
  <v type="int" >      101 </v>
  <v type="int" >       99 </v>
  <v type="int" >       98 </v>
  <v type="int" >       97 </v>
  <v type="int" >      113 </v>
  <v type="int" >      115 </v>
  <v type="int" >      114 </v>
  <v type="int" >      116 </v>
 </varray>
 <kpoints>
  <generation param="Gamma">
   <v type="int" name="divisions">       4        4        1 </v>
   <v name="usershift">      0.00000000       0.00000000       0.00000000 </v>
   <v name="genvec1">      0.25000000      -0.00000000       0.00000000 </v>
   <v name="genvec2">      0.00000000       0.25000000       0.00000000 </v>
   <v name="genvec3">      0.00000000       0.00000000       1.00000000 </v>
   <v name="shift">      0.00000000       0.00000000       0.00000000 </v>
  </generation>
  <varray name="kpointlist" >
   <v>       0.00000000       0.00000000       0.00000000 </v>
   <v>       0.25000000      -0.00000000       0.00000000 </v>
   <v>       0.50000000      -0.00000000       0.00000000 </v>
   <v>       0.00000000       0.25000000       0.00000000 </v>
   <v>       0.25000000       0.25000000       0.00000000 </v>
   <v>       0.50000000       0.25000000       0.00000000 </v>
   <v>      -0.25000000       0.25000000       0.00000000 </v>
   <v>       0.00000000       0.50000000       0.00000000 </v>
   <v>       0.25000000       0.50000000       0.00000000 </v>
   <v>       0.50000000       0.50000000       0.00000000 </v>
  </varray>
  <varray name="weights" >
   <v>       0.06250000 </v>
   <v>       0.12500000 </v>
   <v>       0.06250000 </v>
   <v>       0.12500000 </v>
   <v>       0.12500000 </v>
   <v>       0.12500000 </v>
   <v>       0.12500000 </v>
   <v>       0.06250000 </v>
   <v>       0.12500000 </v>
   <v>       0.06250000 </v>
  </varray>
 </kpoints>
 <parameters>
  <separator name="general" >
   <i type="string" name="SYSTEM">unknown system</i>
   <i type="logical" name="LCOMPAT"> F  </i>
  </separator>
  <separator name="electronic" >
   <i type="string" name="PREC">a</i>
   <i name="ENMAX">    500.00000000</i>
   <i name="ENAUG">    605.39200000</i>
   <i name="EDIFF">      0.00000100</i>
   <i type="int" name="IALGO">    38</i>
   <i type="int" name="IWAVPR">    10</i>
   <i type="int" name="NBANDS">   756</i>
   <i name="NELECT">   1256.00000000</i>
   <i type="int" name="TURBO">     0</i>
   <i type="int" name="IRESTART">     0</i>
   <i type="int" name="NREBOOT">     0</i>
   <i type="int" name="NMIN">     0</i>
   <i name="EREF">      0.00000000</i>
   <separator name="electronic smearing" >
    <i type="int" name="ISMEAR">     0</i>
    <i name="SIGMA">      0.05000000</i>
    <i name="KSPACING">      0.50000000</i>
    <i type="logical" name="KGAMMA"> T  </i>
   </separator>
   <separator name="electronic projectors" >
    <i type="logical" name="LREAL"> F  </i>
    <v name="ROPT">      0.00000000      0.00000000</v>
    <i type="int" name="LMAXPAW">  -100</i>
    <i type="int" name="LMAXMIX">     2</i>
    <i type="logical" name="NLSPLINE"> F  </i>
   </separator>
   <separator name="electronic startup" >
    <i type="int" name="ISTART">     0</i>
    <i type="int" name="ICHARG">     2</i>
    <i type="int" name="INIWAV">     1</i>
   </separator>
   <separator name="electronic spin" >
    <i type="int" name="ISPIN">     1</i>
    <i type="logical" name="LNONCOLLINEAR"> F  </i>
    <v name="MAGMOM">      1.00000000      1.00000000      1.00000000      1.00000000      1.00000000      1.00000000      1.00000000      1.00000000      1.00000000      1.00000000      1.00000000      1.00000000      1.00000000      1.00000000      1.00000000      1.00000000      1.00000000      1.00000000      1.00000000      1.00000000
      1.00000000      1.00000000      1.00000000      1.00000000      1.00000000      1.00000000      1.00000000      1.00000000      1.00000000      1.00000000      1.00000000      1.00000000      1.00000000      1.00000000      1.00000000      1.00000000      1.00000000      1.00000000      1.00000000      1.00000000
      1.00000000      1.00000000      1.00000000      1.00000000      1.00000000      1.00000000      1.00000000      1.00000000      1.00000000      1.00000000      1.00000000      1.00000000      1.00000000      1.00000000      1.00000000      1.00000000      1.00000000      1.00000000      1.00000000      1.00000000
      1.00000000      1.00000000      1.00000000      1.00000000      1.00000000      1.00000000      1.00000000      1.00000000      1.00000000      1.00000000      1.00000000      1.00000000      1.00000000      1.00000000      1.00000000      1.00000000      1.00000000      1.00000000      1.00000000      1.00000000
      1.00000000      1.00000000      1.00000000      1.00000000      1.00000000      1.00000000      1.00000000      1.00000000      1.00000000      1.00000000      1.00000000      1.00000000      1.00000000      1.00000000      1.00000000      1.00000000      1.00000000      1.00000000      1.00000000      1.00000000
      1.00000000      1.00000000      1.00000000      1.00000000      1.00000000      1.00000000      1.00000000      1.00000000      1.00000000      1.00000000      1.00000000      1.00000000      1.00000000      1.00000000      1.00000000      1.00000000</v>
    <i name="NUPDOWN">     -1.00000000</i>
    <i type="logical" name="LSORBIT"> F  </i>
    <v name="SAXIS">      0.00000000      0.00000000      1.00000000</v>
    <i type="logical" name="LSPIRAL"> F  </i>
    <v name="QSPIRAL">      0.00000000      0.00000000      0.00000000</v>
    <i type="logical" name="LZEROZ"> F  </i>
   </separator>
   <separator name="electronic exchange-correlation" >
    <i type="logical" name="LASPH"> F  </i>
    <i type="logical" name="LMETAGGA"> F  </i>
   </separator>
   <separator name="electronic convergence" >
    <i type="int" name="NELM">   300</i>
    <i type="int" name="NELMDL">    -5</i>
    <i type="int" name="NELMIN">     5</i>
    <i name="ENINI">    500.00000000</i>
    <separator name="electronic convergence detail" >
     <i type="logical" name="LDIAG"> T  </i>
     <i type="logical" name="LSUBROT"> F  </i>
     <i name="WEIMIN">      0.00000000</i>
     <i name="EBREAK">      0.00000000</i>
     <i name="DEPER">      0.30000000</i>
     <i type="int" name="NRMM">     4</i>
     <i name="TIME">      0.40000000</i>
    </separator>
   </separator>
   <separator name="electronic mixer" >
    <i name="AMIX">      0.40000000</i>
    <i name="BMIX">      1.00000000</i>
    <i name="AMIN">      0.10000000</i>
    <i name="AMIX_MAG">      1.60000000</i>
    <i name="BMIX_MAG">      1.00000000</i>
    <separator name="electronic mixer details" >
     <i type="int" name="IMIX">     4</i>
     <i type="logical" name="MIXFIRST"> F  </i>
     <i type="int" name="MAXMIX">   -45</i>
     <i name="WC">    100.00000000</i>
     <i type="int" name="INIMIX">     1</i>
     <i type="int" name="MIXPRE">     1</i>
     <i type="int" name="MREMOVE">     5</i>
    </separator>
   </separator>
   <separator name="electronic dipolcorrection" >
    <i type="logical" name="LDIPOL"> F  </i>
    <i type="logical" name="LMONO"> F  </i>
    <i type="int" name="IDIPOL">     0</i>
    <i name="EPSILON">      1.00000000</i>
    <v name="DIPOL">   -100.00000000   -100.00000000   -100.00000000</v>
    <i name="EFIELD">      0.00000000</i>
   </separator>
  </separator>
  <separator name="grids" >
   <i type="int" name="NGX">    80</i>
   <i type="int" name="NGY">    80</i>
   <i type="int" name="NGZ">   210</i>
   <i type="int" name="NGXF">   160</i>
   <i type="int" name="NGYF">   160</i>
   <i type="int" name="NGZF">   420</i>
   <i type="logical" name="ADDGRID"> T  </i>
  </separator>
  <separator name="ionic" >
   <i type="int" name="NSW">     0</i>
   <i type="int" name="IBRION">    -1</i>
   <i type="int" name="MDALGO">     0</i>
   <i type="int" name="ISIF">     2</i>
   <i name="PSTRESS">      0.00000000</i>
   <i name="EDIFFG">      0.00001000</i>
   <i type="int" name="NFREE">     0</i>
   <i name="POTIM">      0.50000000</i>
   <i name="SMASS">     -3.00000000</i>
   <i name="SCALEE">      1.00000000</i>
  </separator>
  <separator name="ionic md" >
   <i name="TEBEG">      0.00010000</i>
   <i name="TEEND">      0.00010000</i>
   <i type="int" name="NBLOCK">     1</i>
   <i type="int" name="KBLOCK">     1</i>
   <i type="int" name="NPACO">   256</i>
   <i name="APACO">     16.00000000</i>
  </separator>
  <separator name="symmetry" >
   <i type="int" name="ISYM">     2</i>
   <i name="SYMPREC">      0.00001000</i>
  </separator>
  <separator name="dos" >
   <i type="int" name="LORBIT">     0</i>
   <v name="RWIGS">     -1.00000000     -1.00000000</v>
   <i type="int" name="NEDOS">   301</i>
   <i name="EMIN">     10.00000000</i>
   <i name="EMAX">    -10.00000000</i>
   <i name="EFERMI">      0.00000000</i>
  </separator>
  <separator name="writing" >
   <i type="int" name="NWRITE">     2</i>
   <i type="logical" name="LWAVE"> F  </i>
   <i type="logical" name="LDOWNSAMPLE"> F  </i>
   <i type="logical" name="LCHARG"> F  </i>
   <i type="logical" name="LPARD"> F  </i>
   <i type="logical" name="LVTOT"> F  </i>
   <i type="logical" name="LVHAR"> F  </i>
   <i type="logical" name="LELF"> F  </i>
   <i type="logical" name="LOPTICS"> F  </i>
   <v name="STM">      0.00000000      0.00000000      0.00000000      0.00000000      0.00000000      0.00000000      0.00000000</v>
  </separator>
  <separator name="performance" >
   <i type="int" name="NPAR">     4</i>
   <i type="int" name="NSIM">     4</i>
   <i type="int" name="NBLK">    -1</i>
   <i type="logical" name="LPLANE"> T  </i>
   <i type="logical" name="LSCALAPACK"> F  </i>
   <i type="logical" name="LSCAAWARE"> F  </i>
   <i type="logical" name="LSCALU"> F  </i>
   <i type="logical" name="LASYNC"> F  </i>
   <i type="logical" name="LORBITALREAL"> F  </i>
  </separator>
  <separator name="miscellaneous" >
   <i type="int" name="IDIOT">     3</i>
   <i type="int" name="ISPECIAL">     0</i>
   <i type="logical" name="LMUSIC"> F  </i>
   <v name="POMASS">     63.54600000     16.00000000</v>
   <v name="DARWINR">      0.00000000      0.00000000</v>
   <v name="DARWINV">      1.00000000      1.00000000</v>
   <i type="logical" name="LCORR"> T  </i>
  </separator>
  <i type="logical" name="GGA_COMPAT"> T  </i>
  <i type="logical" name="LBERRY"> F  </i>
  <i type="int" name="ICORELEVEL">     0</i>
  <i type="logical" name="LDAU"> F  </i>
  <i type="int" name="I_CONSTRAINED_M">     0</i>
  <separator name="electronic exchange-correlation" >
   <i type="string" name="GGA">--</i>
   <i type="int" name="VOSKOWN">     0</i>
   <i type="logical" name="LHFCALC"> F  </i>
   <i type="string" name="PRECFOCK"></i>
   <i type="logical" name="LSYMGRAD"> F  </i>
   <i type="logical" name="LHFONE"> F  </i>
   <i type="logical" name="LRHFCALC"> F  </i>
   <i type="logical" name="LTHOMAS"> F  </i>
   <i type="logical" name="LMODELHF"> F  </i>
   <i name="ENCUT4O">     -1.00000000</i>
   <i type="int" name="EXXOEP">     0</i>
   <i type="int" name="FOURORBIT">     0</i>
   <i name="AEXX">      0.00000000</i>
   <i name="HFALPHA">      0.00000000</i>
   <i name="MCALPHA">      0.00000000</i>
   <i name="ALDAX">      1.00000000</i>
   <i name="AGGAX">      1.00000000</i>
   <i name="ALDAC">      1.00000000</i>
   <i name="AGGAC">      1.00000000</i>
   <i type="int" name="NKREDX">     1</i>
   <i type="int" name="NKREDY">     1</i>
   <i type="int" name="NKREDZ">     1</i>
   <i type="logical" name="SHIFTRED"> F  </i>
   <i type="logical" name="ODDONLY"> F  </i>
   <i type="logical" name="EVENONLY"> F  </i>
   <i type="int" name="LMAXFOCK">     0</i>
   <i type="int" name="NMAXFOCKAE">     0</i>
   <i type="logical" name="LFOCKAEDFT"> F  </i>
   <i name="HFSCREEN">      0.00000000</i>
   <i name="HFSCREENC">      0.00000000</i>
   <i type="int" name="NBANDSGWLOW">     0</i>
  </separator>
  <separator name="vdW DFT" >
   <i type="logical" name="LUSE_VDW"> F  </i>
   <i name="Zab_VDW">     -0.84910000</i>
   <i name="PARAM1">      0.12340000</i>
   <i name="PARAM2">      1.00000000</i>
   <i name="PARAM3">      0.00000000</i>
  </separator>
  <separator name="model GW" >
   <i type="int" name="MODEL_GW">     0</i>
   <i name="MODEL_EPS0">     13.16858037</i>
   <i name="MODEL_ALPHA">      1.00000000</i>
  </separator>
  <separator name="linear response parameters" >
   <i type="logical" name="LEPSILON"> F  </i>
   <i type="logical" name="LRPA"> F  </i>
   <i type="logical" name="LNABLA"> F  </i>
   <i type="logical" name="LVEL"> F  </i>
   <i type="int" name="KINTER">     0</i>
   <i name="CSHIFT">      0.10000000</i>
   <i name="OMEGAMAX">     -1.00000000</i>
   <i name="DEG_THRESHOLD">      0.00200000</i>
   <i name="RTIME">     -0.10000000</i>
   <i name="WPLASMAI">      0.00000000</i>
   <v name="DFIELD">      0.00000000      0.00000000      0.00000000</v>
   <v name="WPLASMA">      0.00000000      0.00000000      0.00000000      0.00000000      0.00000000      0.00000000      0.00000000      0.00000000      0.00000000</v>
  </separator>
  <separator name="orbital magnetization" >
   <i type="logical" name="NUCIND"> F  </i>
   <v name="MAGPOS">      0.00000000      0.00000000      0.00000000</v>
   <i type="logical" name="LNICSALL"> T  </i>
   <i type="logical" name="ORBITALMAG"> F  </i>
   <i type="logical" name="LMAGBLOCH"> F  </i>
   <i type="logical" name="LCHIMAG"> F  </i>
   <i type="logical" name="LGAUGE"> T  </i>
   <i type="int" name="MAGATOM">     0</i>
   <v name="MAGDIPOL">      0.00000000      0.00000000      0.00000000</v>
   <v name="AVECCONST">      0.00000000      0.00000000      0.00000000</v>
  </separator>
  <separator name="response functions" >
   <i type="logical" name="LADDER"> F  </i>
   <i type="logical" name="LRPAFORCE"> F  </i>
   <i type="logical" name="LFXC"> F  </i>
   <i type="logical" name="LHARTREE"> T  </i>
   <i type="int" name="IBSE">     0</i>
   <v type="int" name="KPOINT">    -1     0     0     0</v>
   <i type="logical" name="LTCTE"> F  </i>
   <i type="logical" name="LTETE"> F  </i>
   <i type="logical" name="LTRIPLET"> F  </i>
   <i type="logical" name="LFXCEPS"> F  </i>
   <i type="logical" name="LFXHEG"> F  </i>
   <i type="int" name="NATURALO">     2</i>
   <i type="logical" name="L2ORDER"> F  </i>
   <i type="logical" name="LMP2LT"> F  </i>
   <i type="logical" name="LUSEW"> F  </i>
   <i name="ENCUTGW">     -2.00000000</i>
   <i name="ENCUTGWSOFT">     -2.00000000</i>
   <i name="ENCUTLF">     -1.00000000</i>
   <i type="int" name="LMAXMP2">    -1</i>
   <i name="SCISSOR">      0.00000000</i>
   <i type="int" name="NOMEGA">     0</i>
   <i type="int" name="NOMEGAR">     0</i>
   <i type="int" name="NBANDSGW">    -1</i>
   <i type="int" name="NBANDSO">    -1</i>
   <i type="int" name="NBANDSV">    -1</i>
   <i type="int" name="NELM">   300</i>
   <i type="int" name="NELMHF">     1</i>
   <i type="int" name="DIM">     3</i>
   <i type="int" name="ANTIRES">     0</i>
   <i name="OMEGAMAX">    -30.00000000</i>
   <i name="OMEGAMIN">    -30.00000000</i>
   <i name="OMEGATL">   -200.00000000</i>
   <i type="int" name="OMEGAGRID">   140</i>
   <i name="CSHIFT">     -0.10000000</i>
   <i type="logical" name="SELFENERGY"> F  </i>
   <i type="logical" name="LSPECTRAL"> F  </i>
   <i type="logical" name="LSPECTRALGW"> F  </i>
   <i type="logical" name="LSINGLES"> F  </i>
   <i type="logical" name="LFERMIGW"> F  </i>
   <i type="logical" name="ODDONLYGW"> F  </i>
   <i type="logical" name="EVENONLYGW"> F  </i>
   <i type="int" name="NKREDLFX">     1</i>
   <i type="int" name="NKREDLFY">     1</i>
   <i type="int" name="NKREDLFZ">     1</i>
   <i type="int" name="MAXMEM">  2800</i>
   <i type="int" name="TELESCOPE">     0</i>
   <i type="int" name="TAUPAR">     1</i>
   <i type="int" name="OMEGAPAR">    -1</i>
   <i name="LAMBDA">      1.00000000</i>
  </separator>
  <separator name="External order field" >
   <i name="OFIELD_KAPPA">      0.00000000</i>
   <v name="OFIELD_K">      0.00000000      0.00000000      0.00000000</v>
   <i name="OFIELD_Q6_NEAR">      0.00000000</i>
   <i name="OFIELD_Q6_FAR">      0.00000000</i>
   <i name="OFIELD_A">      0.00000000</i>
  </separator>
 </parameters>
 <atominfo>
  <atoms>     116 </atoms>
  <types>       2 </types>
  <array name="atoms" >
   <dimension dim="1">ion</dimension>
   <field type="string">element</field>
   <field type="int">atomtype</field>
   <set>
    <rc><c>Cu</c><c>   1</c></rc>
    <rc><c>Cu</c><c>   1</c></rc>
    <rc><c>Cu</c><c>   1</c></rc>
    <rc><c>Cu</c><c>   1</c></rc>
    <rc><c>Cu</c><c>   1</c></rc>
    <rc><c>Cu</c><c>   1</c></rc>
    <rc><c>Cu</c><c>   1</c></rc>
    <rc><c>Cu</c><c>   1</c></rc>
    <rc><c>Cu</c><c>   1</c></rc>
    <rc><c>Cu</c><c>   1</c></rc>
    <rc><c>Cu</c><c>   1</c></rc>
    <rc><c>Cu</c><c>   1</c></rc>
    <rc><c>Cu</c><c>   1</c></rc>
    <rc><c>Cu</c><c>   1</c></rc>
    <rc><c>Cu</c><c>   1</c></rc>
    <rc><c>Cu</c><c>   1</c></rc>
    <rc><c>Cu</c><c>   1</c></rc>
    <rc><c>Cu</c><c>   1</c></rc>
    <rc><c>Cu</c><c>   1</c></rc>
    <rc><c>Cu</c><c>   1</c></rc>
    <rc><c>Cu</c><c>   1</c></rc>
    <rc><c>Cu</c><c>   1</c></rc>
    <rc><c>Cu</c><c>   1</c></rc>
    <rc><c>Cu</c><c>   1</c></rc>
    <rc><c>Cu</c><c>   1</c></rc>
    <rc><c>Cu</c><c>   1</c></rc>
    <rc><c>Cu</c><c>   1</c></rc>
    <rc><c>Cu</c><c>   1</c></rc>
    <rc><c>Cu</c><c>   1</c></rc>
    <rc><c>Cu</c><c>   1</c></rc>
    <rc><c>Cu</c><c>   1</c></rc>
    <rc><c>Cu</c><c>   1</c></rc>
    <rc><c>Cu</c><c>   1</c></rc>
    <rc><c>Cu</c><c>   1</c></rc>
    <rc><c>Cu</c><c>   1</c></rc>
    <rc><c>Cu</c><c>   1</c></rc>
    <rc><c>Cu</c><c>   1</c></rc>
    <rc><c>Cu</c><c>   1</c></rc>
    <rc><c>Cu</c><c>   1</c></rc>
    <rc><c>Cu</c><c>   1</c></rc>
    <rc><c>Cu</c><c>   1</c></rc>
    <rc><c>Cu</c><c>   1</c></rc>
    <rc><c>Cu</c><c>   1</c></rc>
    <rc><c>Cu</c><c>   1</c></rc>
    <rc><c>Cu</c><c>   1</c></rc>
    <rc><c>Cu</c><c>   1</c></rc>
    <rc><c>Cu</c><c>   1</c></rc>
    <rc><c>Cu</c><c>   1</c></rc>
    <rc><c>Cu</c><c>   1</c></rc>
    <rc><c>Cu</c><c>   1</c></rc>
    <rc><c>Cu</c><c>   1</c></rc>
    <rc><c>Cu</c><c>   1</c></rc>
    <rc><c>Cu</c><c>   1</c></rc>
    <rc><c>Cu</c><c>   1</c></rc>
    <rc><c>Cu</c><c>   1</c></rc>
    <rc><c>Cu</c><c>   1</c></rc>
    <rc><c>Cu</c><c>   1</c></rc>
    <rc><c>Cu</c><c>   1</c></rc>
    <rc><c>Cu</c><c>   1</c></rc>
    <rc><c>Cu</c><c>   1</c></rc>
    <rc><c>Cu</c><c>   1</c></rc>
    <rc><c>Cu</c><c>   1</c></rc>
    <rc><c>Cu</c><c>   1</c></rc>
    <rc><c>Cu</c><c>   1</c></rc>
    <rc><c>Cu</c><c>   1</c></rc>
    <rc><c>Cu</c><c>   1</c></rc>
    <rc><c>Cu</c><c>   1</c></rc>
    <rc><c>Cu</c><c>   1</c></rc>
    <rc><c>Cu</c><c>   1</c></rc>
    <rc><c>Cu</c><c>   1</c></rc>
    <rc><c>Cu</c><c>   1</c></rc>
    <rc><c>Cu</c><c>   1</c></rc>
    <rc><c>Cu</c><c>   1</c></rc>
    <rc><c>Cu</c><c>   1</c></rc>
    <rc><c>Cu</c><c>   1</c></rc>
    <rc><c>Cu</c><c>   1</c></rc>
    <rc><c>Cu</c><c>   1</c></rc>
    <rc><c>Cu</c><c>   1</c></rc>
    <rc><c>Cu</c><c>   1</c></rc>
    <rc><c>Cu</c><c>   1</c></rc>
    <rc><c>Cu</c><c>   1</c></rc>
    <rc><c>Cu</c><c>   1</c></rc>
    <rc><c>Cu</c><c>   1</c></rc>
    <rc><c>Cu</c><c>   1</c></rc>
    <rc><c>Cu</c><c>   1</c></rc>
    <rc><c>Cu</c><c>   1</c></rc>
    <rc><c>Cu</c><c>   1</c></rc>
    <rc><c>Cu</c><c>   1</c></rc>
    <rc><c>Cu</c><c>   1</c></rc>
    <rc><c>Cu</c><c>   1</c></rc>
    <rc><c>Cu</c><c>   1</c></rc>
    <rc><c>Cu</c><c>   1</c></rc>
    <rc><c>Cu</c><c>   1</c></rc>
    <rc><c>Cu</c><c>   1</c></rc>
    <rc><c>Cu</c><c>   1</c></rc>
    <rc><c>Cu</c><c>   1</c></rc>
    <rc><c>Cu</c><c>   1</c></rc>
    <rc><c>Cu</c><c>   1</c></rc>
    <rc><c>Cu</c><c>   1</c></rc>
    <rc><c>Cu</c><c>   1</c></rc>
    <rc><c>Cu</c><c>   1</c></rc>
    <rc><c>Cu</c><c>   1</c></rc>
    <rc><c>Cu</c><c>   1</c></rc>
    <rc><c>Cu</c><c>   1</c></rc>
    <rc><c>Cu</c><c>   1</c></rc>
    <rc><c>Cu</c><c>   1</c></rc>
    <rc><c>Cu</c><c>   1</c></rc>
    <rc><c>Cu</c><c>   1</c></rc>
    <rc><c>Cu</c><c>   1</c></rc>
    <rc><c>Cu</c><c>   1</c></rc>
    <rc><c>Cu</c><c>   1</c></rc>
    <rc><c>Cu</c><c>   1</c></rc>
    <rc><c>O </c><c>   2</c></rc>
    <rc><c>O </c><c>   2</c></rc>
    <rc><c>O </c><c>   2</c></rc>
    <rc><c>O </c><c>   2</c></rc>
   </set>
  </array>
  <array name="atomtypes" >
   <dimension dim="1">type</dimension>
   <field type="int">atomspertype</field>
   <field type="string">element</field>
   <field>mass</field>
   <field>valence</field>
   <field type="string">pseudopotential</field>
   <set>
    <rc><c> 112</c><c>Cu</c><c>     63.54600000</c><c>     11.00000000</c><c> PAW_PBE Cu 05Jan2001                   </c></rc>
    <rc><c>   4</c><c>O </c><c>     16.00000000</c><c>      6.00000000</c><c> PAW_PBE O 08Apr2002                    </c></rc>
   </set>
  </array>
 </atominfo>
 <structure name="initialpos" >
  <crystal>
   <varray name="basis" >
    <v>      10.28518105       0.00000000       0.00000000 </v>
    <v>       5.14259052       8.90722807       0.00000000 </v>
    <v>       0.00000000       0.00000000      27.79016876 </v>
   </varray>
   <i name="volume">   2545.92553775 </i>
   <varray name="rec_basis" >
    <v>       0.09722726      -0.05613419       0.00000000 </v>
    <v>       0.00000000       0.11226837       0.00000000 </v>
    <v>       0.00000000       0.00000000       0.03598395 </v>
   </varray>
  </crystal>
  <varray name="positions" >
   <v>       0.00000000       0.00000000       0.22663990 </v>
   <v>       0.00000000       0.50000000       0.22663990 </v>
   <v>       0.50000000       0.00000000       0.22663990 </v>
   <v>       0.50000000       0.50000000       0.22663990 </v>
   <v>       0.00000000       0.25000000       0.22663990 </v>
   <v>       0.00000000       0.75000000       0.22663990 </v>
   <v>       0.50000000       0.25000000       0.22663990 </v>
   <v>       0.50000000       0.75000000       0.22663990 </v>
   <v>       0.25000000       0.00000000       0.22663990 </v>
   <v>       0.25000000       0.50000000       0.22663990 </v>
   <v>       0.75000000       0.00000000       0.22663990 </v>
   <v>       0.75000000       0.50000000       0.22663990 </v>
   <v>       0.25000000       0.25000000       0.22663990 </v>
   <v>       0.25000000       0.75000000       0.22663990 </v>
   <v>       0.75000000       0.25000000       0.22663990 </v>
   <v>       0.75000000       0.75000000       0.22663990 </v>
   <v>       0.16666666       0.16666666       0.30218653 </v>
   <v>       0.16666666       0.66666666       0.30218653 </v>
   <v>       0.66666666       0.16666666       0.30218653 </v>
   <v>       0.66666666       0.66666666       0.30218653 </v>
   <v>       0.16666666       0.41666666       0.30218653 </v>
   <v>       0.16666666       0.91666666       0.30218653 </v>
   <v>       0.66666666       0.41666666       0.30218653 </v>
   <v>       0.66666666       0.91666666       0.30218653 </v>
   <v>       0.41666666       0.16666666       0.30218653 </v>
   <v>       0.41666666       0.66666666       0.30218653 </v>
   <v>       0.91666666       0.16666666       0.30218653 </v>
   <v>       0.91666666       0.66666666       0.30218653 </v>
   <v>       0.41666666       0.41666666       0.30218653 </v>
   <v>       0.41666666       0.91666666       0.30218653 </v>
   <v>       0.91666666       0.41666666       0.30218653 </v>
   <v>       0.91666666       0.91666666       0.30218653 </v>
   <v>       0.08333333       0.08333333       0.37716320 </v>
   <v>       0.08333333       0.58333333       0.37716320 </v>
   <v>       0.58333333       0.08333333       0.37716320 </v>
   <v>       0.58333333       0.58333333       0.37716320 </v>
   <v>       0.08351614       0.33324190       0.37729758 </v>
   <v>       0.08351614       0.83324190       0.37729758 </v>
   <v>       0.58351614       0.33324190       0.37729758 </v>
   <v>       0.58351614       0.83324190       0.37729758 </v>
   <v>       0.33324190       0.08351614       0.37729758 </v>
   <v>       0.33324190       0.58351614       0.37729758 </v>
   <v>       0.83324190       0.08351614       0.37729758 </v>
   <v>       0.83324190       0.58351614       0.37729758 </v>
   <v>       0.33324190       0.33324190       0.37729758 </v>
   <v>       0.33324190       0.83324190       0.37729758 </v>
   <v>       0.83324190       0.33324190       0.37729758 </v>
   <v>       0.83324190       0.83324190       0.37729758 </v>
   <v>       0.00012997       0.00012997       0.45242342 </v>
   <v>       0.00012997       0.50012997       0.45242342 </v>
   <v>       0.50012997       0.00012997       0.45242342 </v>
   <v>       0.50012997       0.50012997       0.45242342 </v>
   <v>       0.00012997       0.24974005       0.45242342 </v>
   <v>       0.00012997       0.74974005       0.45242342 </v>
   <v>       0.50012997       0.24974005       0.45242342 </v>
   <v>       0.50012997       0.74974005       0.45242342 </v>
   <v>       0.24974005       0.00012997       0.45242342 </v>
   <v>       0.24974005       0.50012997       0.45242342 </v>
   <v>       0.74974005       0.00012997       0.45242342 </v>
   <v>       0.74974005       0.50012997       0.45242342 </v>
   <v>       0.25000000       0.25000000       0.45288750 </v>
   <v>       0.25000000       0.75000000       0.45288750 </v>
   <v>       0.75000000       0.25000000       0.45288750 </v>
   <v>       0.75000000       0.75000000       0.45288750 </v>
   <v>       0.16660598       0.16660598       0.52813907 </v>
   <v>       0.16660598       0.66660598       0.52813907 </v>
   <v>       0.66660598       0.16660598       0.52813907 </v>
   <v>       0.66660598       0.66660598       0.52813907 </v>
   <v>       0.16660598       0.41678801       0.52813907 </v>
   <v>       0.16660598       0.91678801       0.52813907 </v>
   <v>       0.66660598       0.41678801       0.52813907 </v>
   <v>       0.66660598       0.91678801       0.52813907 </v>
   <v>       0.41678801       0.16660598       0.52813907 </v>
   <v>       0.41678801       0.66660598       0.52813907 </v>
   <v>       0.91678801       0.16660598       0.52813907 </v>
   <v>       0.91678801       0.66660598       0.52813907 </v>
   <v>       0.41666666       0.41666666       0.52741939 </v>
   <v>       0.41666666       0.91666666       0.52741939 </v>
   <v>       0.91666666       0.41666666       0.52741939 </v>
   <v>       0.91666666       0.91666666       0.52741939 </v>
   <v>       0.08333333       0.08333333       0.60253339 </v>
   <v>       0.08333333       0.58333333       0.60253339 </v>
   <v>       0.58333333       0.08333333       0.60253339 </v>
   <v>       0.58333333       0.58333333       0.60253339 </v>
   <v>       0.08051549       0.33593300       0.60371353 </v>
   <v>       0.08130935       0.83434529       0.60320464 </v>
   <v>       0.58130935       0.33434529       0.60320464 </v>
   <v>       0.58130935       0.83434529       0.60320464 </v>
   <v>       0.33434529       0.08130935       0.60320464 </v>
   <v>       0.33434529       0.58130935       0.60320464 </v>
   <v>       0.83434529       0.08130935       0.60320464 </v>
   <v>       0.83434529       0.58130935       0.60320464 </v>
   <v>       0.33434529       0.33434529       0.60320464 </v>
   <v>       0.33434529       0.83434529       0.60320464 </v>
   <v>       0.83434529       0.33434529       0.60320464 </v>
   <v>       0.83434529       0.83434529       0.60320464 </v>
   <v>       0.49714648       0.49714648       0.68057248 </v>
   <v>       0.49714648       0.99714648       0.68057248 </v>
   <v>       0.99714648       0.49714648       0.68057248 </v>
   <v>       0.99714648       0.99714648       0.68057248 </v>
   <v>       0.49714648       0.25570704       0.68057248 </v>
   <v>       0.49714648       0.75570704       0.68057248 </v>
   <v>       0.99714648       0.25570704       0.68057248 </v>
   <v>       0.99714648       0.75570704       0.68057248 </v>
   <v>       0.25570704       0.49714648       0.68057248 </v>
   <v>       0.25570704       0.99714648       0.68057248 </v>
   <v>       0.75570704       0.49714648       0.68057248 </v>
   <v>       0.75570704       0.99714648       0.68057248 </v>
   <v>       0.25000000       0.25000000       0.67480871 </v>
   <v>       0.25000000       0.75000000       0.67480871 </v>
   <v>       0.75000000       0.25000000       0.67480871 </v>
   <v>       0.75000000       0.75000000       0.67480871 </v>
   <v>       0.08333333       0.08333333       0.72043888 </v>
   <v>       0.08333333       0.58333333       0.72043888 </v>
   <v>       0.58333333       0.08333333       0.72043888 </v>
   <v>       0.58333333       0.58333333       0.72043888 </v>
  </varray>
 </structure>
 <calculation>
  <scstep>
   <time name="dav">  165.37  165.67</time>
   <time name="total">  165.97  166.28</time>
   <energy>
    <i name="alphaZ">   6463.29446255 </i>
    <i name="ewald"> 664535.27977592 </i>
    <i name="hartreedc">-815290.16398731 </i>
    <i name="XCdc">   5009.43457178 </i>
    <i name="pawpsdc"> 122173.85035501 </i>
    <i name="pawaedc">-138312.01710912 </i>
    <i name="eentropy">     -0.02790581 </i>
    <i name="bandstr">   8852.88454609 </i>
    <i name="atom"> 157518.83071590 </i>
    <i name="e_fr_energy">  10951.36542502 </i>
    <i name="e_wo_entrp">  10951.39333083 </i>
    <i name="e_0_energy">  10951.37937793 </i>
   </energy>
  </scstep>
  <scstep>
   <time name="dav">  160.36  160.63</time>
   <time name="total">  160.39  160.65</time>
   <energy>
    <i name="e_fr_energy">   1074.17560647 </i>
    <i name="e_wo_entrp">   1074.22205152 </i>
    <i name="e_0_energy">   1074.19882900 </i>
   </energy>
  </scstep>
  <scstep>
   <time name="dav">  172.18  172.43</time>
   <time name="total">  172.20  172.46</time>
   <energy>
    <i name="e_fr_energy">   -373.62023764 </i>
    <i name="e_wo_entrp">   -373.55516006 </i>
    <i name="e_0_energy">   -373.58769885 </i>
   </energy>
  </scstep>
  <scstep>
   <time name="dav">  185.17  185.47</time>
   <time name="total">  185.19  185.50</time>
   <energy>
    <i name="e_fr_energy">   -524.83064608 </i>
    <i name="e_wo_entrp">   -524.76731534 </i>
    <i name="e_0_energy">   -524.79898071 </i>
   </energy>
  </scstep>
  <scstep>
   <time name="dav">  166.96  167.18</time>
   <time name="total">  172.24  172.47</time>
   <energy>
    <i name="e_fr_energy">   -530.86802441 </i>
    <i name="e_wo_entrp">   -530.80467901 </i>
    <i name="e_0_energy">   -530.83635171 </i>
   </energy>
  </scstep>
  <scstep>
   <time name="dav">  174.20  174.44</time>
   <time name="total">  179.93  180.19</time>
   <energy>
    <i name="e_fr_energy">   -478.09643735 </i>
    <i name="e_wo_entrp">   -478.04010191 </i>
    <i name="e_0_energy">   -478.06826963 </i>
   </energy>
  </scstep>
  <scstep>
   <time name="dav">  177.49  177.75</time>
   <time name="total">  183.16  183.44</time>
   <energy>
    <i name="e_fr_energy">   -511.55802942 </i>
    <i name="e_wo_entrp">   -511.43550421 </i>
    <i name="e_0_energy">   -511.49676681 </i>
   </energy>
  </scstep>
  <scstep>
   <time name="dav">  198.39  198.68</time>
   <time name="total">  204.09  204.42</time>
   <energy>
    <i name="e_fr_energy">   -444.94644521 </i>
    <i name="e_wo_entrp">   -444.86229933 </i>
    <i name="e_0_energy">   -444.90437227 </i>
   </energy>
  </scstep>
  <scstep>
   <time name="dav">  198.03  198.32</time>
   <time name="total">  203.73  204.03</time>
   <energy>
    <i name="e_fr_energy">   -428.54593160 </i>
    <i name="e_wo_entrp">   -428.50692984 </i>
    <i name="e_0_energy">   -428.52643072 </i>
   </energy>
  </scstep>
  <scstep>
   <time name="dav">  179.87  180.18</time>
   <time name="total">  185.51  185.85</time>
   <energy>
    <i name="e_fr_energy">   -429.30666350 </i>
    <i name="e_wo_entrp">   -429.25337852 </i>
    <i name="e_0_energy">   -429.28002101 </i>
   </energy>
  </scstep>
  <scstep>
   <time name="dav">  183.42  183.71</time>
   <time name="total">  190.42  190.74</time>
   <energy>
    <i name="e_fr_energy">   -427.93843487 </i>
    <i name="e_wo_entrp">   -427.87202388 </i>
    <i name="e_0_energy">   -427.90522938 </i>
   </energy>
  </scstep>
  <scstep>
   <time name="dav">  198.76  199.09</time>
   <time name="total">  204.39  204.75</time>
   <energy>
    <i name="e_fr_energy">   -427.70012092 </i>
    <i name="e_wo_entrp">   -427.64522203 </i>
    <i name="e_0_energy">   -427.67267147 </i>
   </energy>
  </scstep>
  <scstep>
   <time name="dav">  174.19  174.44</time>
   <time name="total">  179.80  180.90</time>
   <energy>
    <i name="e_fr_energy">   -427.64612663 </i>
    <i name="e_wo_entrp">   -427.59138074 </i>
    <i name="e_0_energy">   -427.61875369 </i>
   </energy>
  </scstep>
  <scstep>
   <time name="dav">  173.03  173.31</time>
   <time name="total">  178.64  178.94</time>
   <energy>
    <i name="e_fr_energy">   -427.54146446 </i>
    <i name="e_wo_entrp">   -427.49224445 </i>
    <i name="e_0_energy">   -427.51685446 </i>
   </energy>
  </scstep>
  <scstep>
   <time name="dav">  168.39  168.87</time>
   <time name="total">  175.43  175.92</time>
   <energy>
    <i name="e_fr_energy">   -427.61259792 </i>
    <i name="e_wo_entrp">   -427.56418248 </i>
    <i name="e_0_energy">   -427.58839020 </i>
   </energy>
  </scstep>
  <scstep>
   <time name="dav">  164.92  165.25</time>
   <time name="total">  170.56  170.90</time>
   <energy>
    <i name="e_fr_energy">   -427.51322717 </i>
    <i name="e_wo_entrp">   -427.46365368 </i>
    <i name="e_0_energy">   -427.48844042 </i>
   </energy>
  </scstep>
  <scstep>
   <time name="dav">  168.20  168.61</time>
   <time name="total">  173.83  174.25</time>
   <energy>
    <i name="e_fr_energy">   -427.47921356 </i>
    <i name="e_wo_entrp">   -427.42806464 </i>
    <i name="e_0_energy">   -427.45363910 </i>
   </energy>
  </scstep>
  <scstep>
   <time name="dav">  196.17  196.52</time>
   <time name="total">  201.81  202.16</time>
   <energy>
    <i name="e_fr_energy">   -427.46520221 </i>
    <i name="e_wo_entrp">   -427.41271163 </i>
    <i name="e_0_energy">   -427.43895692 </i>
   </energy>
  </scstep>
  <scstep>
   <time name="dav">  181.84  182.15</time>
   <time name="total">  187.52  187.85</time>
   <energy>
    <i name="e_fr_energy">   -427.46504041 </i>
    <i name="e_wo_entrp">   -427.41198119 </i>
    <i name="e_0_energy">   -427.43851080 </i>
   </energy>
  </scstep>
  <scstep>
   <time name="dav">  165.49  165.72</time>
   <time name="total">  172.08  172.32</time>
   <energy>
    <i name="e_fr_energy">   -427.46552738 </i>
    <i name="e_wo_entrp">   -427.41227774 </i>
    <i name="e_0_energy">   -427.43890256 </i>
   </energy>
  </scstep>
  <scstep>
   <time name="dav">  161.15  161.36</time>
   <time name="total">  166.78  167.01</time>
   <energy>
    <i name="e_fr_energy">   -427.46595340 </i>
    <i name="e_wo_entrp">   -427.41241191 </i>
    <i name="e_0_energy">   -427.43918266 </i>
   </energy>
  </scstep>
  <scstep>
   <time name="dav">  208.00  208.39</time>
   <time name="total">  213.65  214.05</time>
   <energy>
    <i name="e_fr_energy">   -427.46600749 </i>
    <i name="e_wo_entrp">   -427.41269698 </i>
    <i name="e_0_energy">   -427.43935223 </i>
   </energy>
  </scstep>
  <scstep>
   <time name="dav">  156.49  156.70</time>
   <time name="total">  162.19  162.40</time>
   <energy>
    <i name="e_fr_energy">   -427.46601389 </i>
    <i name="e_wo_entrp">   -427.41275410 </i>
    <i name="e_0_energy">   -427.43938399 </i>
   </energy>
  </scstep>
  <scstep>
   <time name="dav">  155.92  156.37</time>
   <time name="total">  161.58  162.04</time>
   <energy>
    <i name="e_fr_energy">   -427.46614861 </i>
    <i name="e_wo_entrp">   -427.41287675 </i>
    <i name="e_0_energy">   -427.43951268 </i>
   </energy>
  </scstep>
  <scstep>
   <time name="dav">  181.36  181.65</time>
   <time name="total">  187.05  187.34</time>
   <energy>
    <i name="e_fr_energy">   -427.46630505 </i>
    <i name="e_wo_entrp">   -427.41307127 </i>
    <i name="e_0_energy">   -427.43968816 </i>
   </energy>
  </scstep>
  <scstep>
   <time name="dav">  185.81  186.05</time>
   <time name="total">  192.62  192.87</time>
   <energy>
    <i name="e_fr_energy">   -427.46655274 </i>
    <i name="e_wo_entrp">   -427.41331909 </i>
    <i name="e_0_energy">   -427.43993592 </i>
   </energy>
  </scstep>
  <scstep>
   <time name="dav">  161.59  161.81</time>
   <time name="total">  169.58  169.83</time>
   <energy>
    <i name="e_fr_energy">   -427.46679745 </i>
    <i name="e_wo_entrp">   -427.41356514 </i>
    <i name="e_0_energy">   -427.44018129 </i>
   </energy>
  </scstep>
  <scstep>
   <time name="dav">  161.91  162.13</time>
   <time name="total">  167.58  167.80</time>
   <energy>
    <i name="e_fr_energy">   -427.46698169 </i>
    <i name="e_wo_entrp">   -427.41376494 </i>
    <i name="e_0_energy">   -427.44037331 </i>
   </energy>
  </scstep>
  <scstep>
   <time name="dav">  159.82  160.13</time>
   <time name="total">  165.91  166.23</time>
   <energy>
    <i name="e_fr_energy">   -427.46711964 </i>
    <i name="e_wo_entrp">   -427.41391735 </i>
    <i name="e_0_energy">   -427.44051850 </i>
   </energy>
  </scstep>
  <scstep>
   <time name="dav">  156.24  156.49</time>
   <time name="total">  161.91  162.16</time>
   <energy>
    <i name="e_fr_energy">   -427.46723454 </i>
    <i name="e_wo_entrp">   -427.41403458 </i>
    <i name="e_0_energy">   -427.44063456 </i>
   </energy>
  </scstep>
  <scstep>
   <time name="dav">  147.28  147.52</time>
   <time name="total">  152.96  153.21</time>
   <energy>
    <i name="e_fr_energy">   -427.46731932 </i>
    <i name="e_wo_entrp">   -427.41410904 </i>
    <i name="e_0_energy">   -427.44071418 </i>
   </energy>
  </scstep>
  <scstep>
   <time name="dav">  153.62  153.90</time>
   <time name="total">  161.74  162.03</time>
   <energy>
    <i name="e_fr_energy">   -427.46738479 </i>
    <i name="e_wo_entrp">   -427.41415725 </i>
    <i name="e_0_energy">   -427.44077102 </i>
   </energy>
  </scstep>
  <scstep>
   <time name="dav">  130.05  130.35</time>
   <time name="total">  135.72  136.03</time>
   <energy>
    <i name="e_fr_energy">   -427.46741319 </i>
    <i name="e_wo_entrp">   -427.41418219 </i>
    <i name="e_0_energy">   -427.44079769 </i>
   </energy>
  </scstep>
  <scstep>
   <time name="dav">  118.16  118.35</time>
   <time name="total">  123.80  123.99</time>
   <energy>
    <i name="e_fr_energy">   -427.46743783 </i>
    <i name="e_wo_entrp">   -427.41421416 </i>
    <i name="e_0_energy">   -427.44082599 </i>
   </energy>
  </scstep>
  <scstep>
   <time name="dav">  115.42  115.58</time>
   <time name="total">  121.06  121.23</time>
   <energy>
    <i name="e_fr_energy">   -427.46745565 </i>
    <i name="e_wo_entrp">   -427.41423659 </i>
    <i name="e_0_energy">   -427.44084612 </i>
   </energy>
  </scstep>
  <scstep>
   <time name="dav">  118.57  118.77</time>
   <time name="total">  124.19  124.39</time>
   <energy>
    <i name="e_fr_energy">   -427.46746434 </i>
    <i name="e_wo_entrp">   -427.41424765 </i>
    <i name="e_0_energy">   -427.44085600 </i>
   </energy>
  </scstep>
  <scstep>
   <time name="dav">  118.58  118.75</time>
   <time name="total">  124.20  124.38</time>
   <energy>
    <i name="e_fr_energy">   -427.46747223 </i>
    <i name="e_wo_entrp">   -427.41425492 </i>
    <i name="e_0_energy">   -427.44086357 </i>
   </energy>
  </scstep>
  <scstep>
   <time name="dav">  116.60  116.76</time>
   <time name="total">  123.30  123.47</time>
   <energy>
    <i name="e_fr_energy">   -427.46747519 </i>
    <i name="e_wo_entrp">   -427.41425657 </i>
    <i name="e_0_energy">   -427.44086588 </i>
   </energy>
  </scstep>
  <scstep>
   <time name="dav">  114.35  114.51</time>
   <time name="total">  119.98  120.15</time>
   <energy>
    <i name="e_fr_energy">   -427.46747741 </i>
    <i name="e_wo_entrp">   -427.41425808 </i>
    <i name="e_0_energy">   -427.44086775 </i>
   </energy>
  </scstep>
  <scstep>
   <time name="dav">  114.84  115.02</time>
   <time name="total">  120.45  120.64</time>
   <energy>
    <i name="e_fr_energy">   -427.46747841 </i>
    <i name="e_wo_entrp">   -427.41425878 </i>
    <i name="e_0_energy">   -427.44086859 </i>
   </energy>
  </scstep>
  <scstep>
   <time name="dav">  115.96  116.12</time>
   <time name="total">  116.46  116.63</time>
   <energy>
    <i name="alphaZ">   6463.29446255 </i>
    <i name="ewald"> 664535.27977592 </i>
    <i name="hartreedc">-813326.24453534 </i>
    <i name="XCdc">   4896.83304254 </i>
    <i name="pawpsdc"> 123760.08371686 </i>
    <i name="pawaedc">-139977.14887329 </i>
    <i name="eentropy">     -0.05321980 </i>
    <i name="bandstr">  -4298.34256441 </i>
    <i name="atom"> 157518.83071590 </i>
    <i name="e_fr_energy">   -427.46747908 </i>
    <i name="e_wo_entrp">   -427.41425927 </i>
    <i name="e_0_energy">   -427.44086917 </i>
   </energy>
  </scstep>
  <structure>
   <crystal>
    <varray name="basis" >
     <v>      10.28518105       0.00000000       0.00000000 </v>
     <v>       5.14259052       8.90722807       0.00000000 </v>
     <v>       0.00000000       0.00000000      27.79016876 </v>
    </varray>
    <i name="volume">   2545.92553775 </i>
    <varray name="rec_basis" >
     <v>       0.09722726      -0.05613419       0.00000000 </v>
     <v>       0.00000000       0.11226837       0.00000000 </v>
     <v>       0.00000000       0.00000000       0.03598395 </v>
    </varray>
   </crystal>
   <varray name="positions" >
    <v>       0.00000000       0.00000000       0.22663990 </v>
    <v>       0.00000000       0.50000000       0.22663990 </v>
    <v>       0.50000000       0.00000000       0.22663990 </v>
    <v>       0.50000000       0.50000000       0.22663990 </v>
    <v>       0.00000000       0.25000000       0.22663990 </v>
    <v>       0.00000000       0.75000000       0.22663990 </v>
    <v>       0.50000000       0.25000000       0.22663990 </v>
    <v>       0.50000000       0.75000000       0.22663990 </v>
    <v>       0.25000000       0.00000000       0.22663990 </v>
    <v>       0.25000000       0.50000000       0.22663990 </v>
    <v>       0.75000000       0.00000000       0.22663990 </v>
    <v>       0.75000000       0.50000000       0.22663990 </v>
    <v>       0.25000000       0.25000000       0.22663990 </v>
    <v>       0.25000000       0.75000000       0.22663990 </v>
    <v>       0.75000000       0.25000000       0.22663990 </v>
    <v>       0.75000000       0.75000000       0.22663990 </v>
    <v>       0.16666666       0.16666666       0.30218653 </v>
    <v>       0.16666666       0.66666666       0.30218653 </v>
    <v>       0.66666666       0.16666666       0.30218653 </v>
    <v>       0.66666666       0.66666666       0.30218653 </v>
    <v>       0.16666666       0.41666666       0.30218653 </v>
    <v>       0.16666666       0.91666666       0.30218653 </v>
    <v>       0.66666666       0.41666666       0.30218653 </v>
    <v>       0.66666666       0.91666666       0.30218653 </v>
    <v>       0.41666666       0.16666666       0.30218653 </v>
    <v>       0.41666666       0.66666666       0.30218653 </v>
    <v>       0.91666666       0.16666666       0.30218653 </v>
    <v>       0.91666666       0.66666666       0.30218653 </v>
    <v>       0.41666666       0.41666666       0.30218653 </v>
    <v>       0.41666666       0.91666666       0.30218653 </v>
    <v>       0.91666666       0.41666666       0.30218653 </v>
    <v>       0.91666666       0.91666666       0.30218653 </v>
    <v>       0.08333333       0.08333333       0.37716320 </v>
    <v>       0.08333333       0.58333333       0.37716320 </v>
    <v>       0.58333333       0.08333333       0.37716320 </v>
    <v>       0.58333333       0.58333333       0.37716320 </v>
    <v>       0.08351614       0.33324190       0.37729758 </v>
    <v>       0.08351614       0.83324190       0.37729758 </v>
    <v>       0.58351614       0.33324190       0.37729758 </v>
    <v>       0.58351614       0.83324190       0.37729758 </v>
    <v>       0.33324190       0.08351614       0.37729758 </v>
    <v>       0.33324190       0.58351614       0.37729758 </v>
    <v>       0.83324190       0.08351614       0.37729758 </v>
    <v>       0.83324190       0.58351614       0.37729758 </v>
    <v>       0.33324190       0.33324190       0.37729758 </v>
    <v>       0.33324190       0.83324190       0.37729758 </v>
    <v>       0.83324190       0.33324190       0.37729758 </v>
    <v>       0.83324190       0.83324190       0.37729758 </v>
    <v>       0.00012997       0.00012997       0.45242342 </v>
    <v>       0.00012997       0.50012997       0.45242342 </v>
    <v>       0.50012997       0.00012997       0.45242342 </v>
    <v>       0.50012997       0.50012997       0.45242342 </v>
    <v>       0.00012997       0.24974005       0.45242342 </v>
    <v>       0.00012997       0.74974005       0.45242342 </v>
    <v>       0.50012997       0.24974005       0.45242342 </v>
    <v>       0.50012997       0.74974005       0.45242342 </v>
    <v>       0.24974005       0.00012997       0.45242342 </v>
    <v>       0.24974005       0.50012997       0.45242342 </v>
    <v>       0.74974005       0.00012997       0.45242342 </v>
    <v>       0.74974005       0.50012997       0.45242342 </v>
    <v>       0.25000000       0.25000000       0.45288750 </v>
    <v>       0.25000000       0.75000000       0.45288750 </v>
    <v>       0.75000000       0.25000000       0.45288750 </v>
    <v>       0.75000000       0.75000000       0.45288750 </v>
    <v>       0.16660598       0.16660598       0.52813907 </v>
    <v>       0.16660598       0.66660598       0.52813907 </v>
    <v>       0.66660598       0.16660598       0.52813907 </v>
    <v>       0.66660598       0.66660598       0.52813907 </v>
    <v>       0.16660598       0.41678801       0.52813907 </v>
    <v>       0.16660598       0.91678801       0.52813907 </v>
    <v>       0.66660598       0.41678801       0.52813907 </v>
    <v>       0.66660598       0.91678801       0.52813907 </v>
    <v>       0.41678801       0.16660598       0.52813907 </v>
    <v>       0.41678801       0.66660598       0.52813907 </v>
    <v>       0.91678801       0.16660598       0.52813907 </v>
    <v>       0.91678801       0.66660598       0.52813907 </v>
    <v>       0.41666666       0.41666666       0.52741939 </v>
    <v>       0.41666666       0.91666666       0.52741939 </v>
    <v>       0.91666666       0.41666666       0.52741939 </v>
    <v>       0.91666666       0.91666666       0.52741939 </v>
    <v>       0.08333333       0.08333333       0.60253339 </v>
    <v>       0.08333333       0.58333333       0.60253339 </v>
    <v>       0.58333333       0.08333333       0.60253339 </v>
    <v>       0.58333333       0.58333333       0.60253339 </v>
    <v>       0.08051549       0.33593300       0.60371353 </v>
    <v>       0.08130935       0.83434529       0.60320464 </v>
    <v>       0.58130935       0.33434529       0.60320464 </v>
    <v>       0.58130935       0.83434529       0.60320464 </v>
    <v>       0.33434529       0.08130935       0.60320464 </v>
    <v>       0.33434529       0.58130935       0.60320464 </v>
    <v>       0.83434529       0.08130935       0.60320464 </v>
    <v>       0.83434529       0.58130935       0.60320464 </v>
    <v>       0.33434529       0.33434529       0.60320464 </v>
    <v>       0.33434529       0.83434529       0.60320464 </v>
    <v>       0.83434529       0.33434529       0.60320464 </v>
    <v>       0.83434529       0.83434529       0.60320464 </v>
    <v>       0.49714648       0.49714648       0.68057248 </v>
    <v>       0.49714648       0.99714648       0.68057248 </v>
    <v>       0.99714648       0.49714648       0.68057248 </v>
    <v>       0.99714648       0.99714648       0.68057248 </v>
    <v>       0.49714648       0.25570704       0.68057248 </v>
    <v>       0.49714648       0.75570704       0.68057248 </v>
    <v>       0.99714648       0.25570704       0.68057248 </v>
    <v>       0.99714648       0.75570704       0.68057248 </v>
    <v>       0.25570704       0.49714648       0.68057248 </v>
    <v>       0.25570704       0.99714648       0.68057248 </v>
    <v>       0.75570704       0.49714648       0.68057248 </v>
    <v>       0.75570704       0.99714648       0.68057248 </v>
    <v>       0.25000000       0.25000000       0.67480871 </v>
    <v>       0.25000000       0.75000000       0.67480871 </v>
    <v>       0.75000000       0.25000000       0.67480871 </v>
    <v>       0.75000000       0.75000000       0.67480871 </v>
    <v>       0.08333333       0.08333333       0.72043888 </v>
    <v>       0.08333333       0.58333333       0.72043888 </v>
    <v>       0.58333333       0.08333333       0.72043888 </v>
    <v>       0.58333333       0.58333333       0.72043888 </v>
   </varray>
  </structure>
  <varray name="forces" >
   <v>       0.00797871       0.00467921       0.07162825 </v>
   <v>       0.00790681       0.00459521       0.07165340 </v>
   <v>       0.00782326       0.00463252       0.07161753 </v>
   <v>       0.00793615       0.00441159       0.07169791 </v>
   <v>      -0.00008724      -0.00913384       0.07166527 </v>
   <v>       0.00000796      -0.00914966       0.07163076 </v>
   <v>      -0.00012583      -0.00915438       0.07156485 </v>
   <v>      -0.00002243      -0.00909195       0.07168391 </v>
   <v>      -0.00788185       0.00440765       0.07149840 </v>
   <v>      -0.00791985       0.00463656       0.07166202 </v>
   <v>      -0.00789200       0.00464017       0.07177281 </v>
   <v>      -0.00786284       0.00460355       0.07159495 </v>
   <v>       0.00004751      -0.00003676       0.08631330 </v>
   <v>       0.00006569       0.00003463       0.08632100 </v>
   <v>       0.00003011      -0.00004234       0.08627114 </v>
   <v>      -0.00000361       0.00005291       0.08635589 </v>
   <v>       0.00707247       0.00424670      -0.07989818 </v>
   <v>       0.00699116       0.00386978      -0.08001770 </v>
   <v>       0.00700687       0.00390249      -0.07984933 </v>
   <v>       0.00694135       0.00390974      -0.07993010 </v>
   <v>      -0.00003467      -0.00798815      -0.07991880 </v>
   <v>      -0.00003856      -0.00798937      -0.07992334 </v>
   <v>      -0.00017937      -0.00818643      -0.07990245 </v>
   <v>      -0.00005115      -0.00815398      -0.08003334 </v>
   <v>      -0.00697119       0.00402842      -0.07998959 </v>
   <v>      -0.00702841       0.00421617      -0.07992615 </v>
   <v>      -0.00701500       0.00401011      -0.08005449 </v>
   <v>      -0.00704288       0.00421795      -0.07994929 </v>
   <v>       0.00015021      -0.00003444      -0.05921956 </v>
   <v>       0.00009233       0.00009288      -0.05919857 </v>
   <v>      -0.00010664       0.00014004      -0.05918748 </v>
   <v>       0.00013784      -0.00015478      -0.05910569 </v>
   <v>       0.00003126       0.00002897       0.00004537 </v>
   <v>       0.00012052      -0.00004197      -0.00000890 </v>
   <v>       0.00001830       0.00005784       0.00005224 </v>
   <v>       0.00015020       0.00008397       0.00006327 </v>
   <v>      -0.00003012      -0.00009436      -0.00003666 </v>
   <v>      -0.00007571       0.00007126      -0.00012241 </v>
   <v>       0.00003158       0.00005030      -0.00006034 </v>
   <v>       0.00000072       0.00005816      -0.00005840 </v>
   <v>       0.00003312       0.00008435      -0.00005944 </v>
   <v>      -0.00016047       0.00001594       0.00018016 </v>
   <v>       0.00003941       0.00011940       0.00005849 </v>
   <v>      -0.00001693      -0.00012621      -0.00003779 </v>
   <v>      -0.00001219      -0.00011970      -0.00011998 </v>
   <v>      -0.00001635       0.00002897       0.00013943 </v>
   <v>      -0.00003355      -0.00005266      -0.00002827 </v>
   <v>      -0.00004767      -0.00010812       0.00004760 </v>
   <v>      -0.00008284      -0.00009616      -0.00021975 </v>
   <v>      -0.00001263      -0.00014776       0.00061549 </v>
   <v>       0.00015648       0.00001110      -0.00018514 </v>
   <v>       0.00007212      -0.00004394       0.00003361 </v>
   <v>       0.00025768       0.00027476       0.00102411 </v>
   <v>       0.00016434      -0.00005700       0.00001713 </v>
   <v>       0.00005383      -0.00011862      -0.00009635 </v>
   <v>       0.00003476       0.00002411       0.00018515 </v>
   <v>       0.00008462       0.00001782       0.00007046 </v>
   <v>      -0.00009828      -0.00021056       0.00023091 </v>
   <v>       0.00002125      -0.00014022       0.00008302 </v>
   <v>      -0.00009413      -0.00004754      -0.00000126 </v>
   <v>      -0.00020775       0.00029483       0.00076715 </v>
   <v>      -0.00002753       0.00007855       0.00008822 </v>
   <v>      -0.00017054      -0.00010627      -0.00006761 </v>
   <v>      -0.00015348      -0.00003311       0.00005046 </v>
   <v>      -0.00030543       0.01807866       0.02632600 </v>
   <v>       0.00012020       0.00033050      -0.00016388 </v>
   <v>      -0.00012503       0.00012153      -0.00023540 </v>
   <v>      -0.00000776       0.00015439      -0.00001557 </v>
   <v>      -0.00700198      -0.00535333       0.01039452 </v>
   <v>       0.00010644       0.00079859       0.00044373 </v>
   <v>       0.00021485      -0.00011729       0.00009341 </v>
   <v>       0.00010608       0.00000738      -0.00019106 </v>
   <v>      -0.00081129       0.00003210       0.00030686 </v>
   <v>       0.00002593      -0.00011084      -0.00023276 </v>
   <v>       0.00085425       0.00028654       0.00022527 </v>
   <v>       0.00011047       0.00006586      -0.00030333 </v>
   <v>      -0.00013520       0.00000044       0.00007401 </v>
   <v>      -0.00024862       0.00080382       0.00057493 </v>
   <v>       0.00684797      -0.00524332       0.00977563 </v>
   <v>      -0.00021162      -0.00012044       0.00006328 </v>
   <v>       0.01051250       0.01733319      -0.00112654 </v>
   <v>       0.01139454       0.01809355      -0.00173854 </v>
   <v>      -0.00022513       0.00010724      -0.00015629 </v>
   <v>      -0.00013550       0.00021095      -0.00032418 </v>
   <v>      -0.00607592      -0.08675898      -0.09046237 </v>
   <v>       0.00044292       0.00014370      -0.00051900 </v>
   <v>      -0.00008901      -0.00028886      -0.00044596 </v>
   <v>      -0.00023292       0.00015255      -0.00035453 </v>
   <v>      -0.00900104       0.01490530      -0.00178310 </v>
   <v>       0.00048761       0.00028153      -0.00035176 </v>
   <v>       0.00039031       0.00028545      -0.00026747 </v>
   <v>      -0.01288792       0.02210617      -0.00278850 </v>
   <v>      -0.00091783      -0.00113206      -0.00134509 </v>
   <v>      -0.00004446       0.00068433      -0.00033809 </v>
   <v>      -0.00085140      -0.00238565      -0.00292186 </v>
   <v>      -0.00008028       0.00077722      -0.00043565 </v>
   <v>      -0.00011300      -0.00033433      -0.00101041 </v>
   <v>      -0.00019525       0.00000425      -0.00072732 </v>
   <v>       0.00282584       0.01589241       0.02367452 </v>
   <v>      -0.00007117       0.00019717      -0.00079756 </v>
   <v>       0.00046213      -0.00008775      -0.00064884 </v>
   <v>       0.00038070       0.00010147      -0.00102276 </v>
   <v>      -0.00358265      -0.00596439       0.00764954 </v>
   <v>       0.00035772       0.00033965       0.00024426 </v>
   <v>       0.00065846       0.00017447      -0.00106006 </v>
   <v>      -0.00013466       0.00024380      -0.00104373 </v>
   <v>      -0.00151005       0.00029873      -0.00049566 </v>
   <v>       0.00002196      -0.00026119      -0.00092449 </v>
   <v>       0.00963019      -0.00832678       0.01293190 </v>
   <v>      -0.00008087      -0.00012126      -0.00032238 </v>
   <v>      -0.00036220      -0.00021948      -0.00017490 </v>
   <v>      -0.00021203       0.00124291       0.00012619 </v>
   <v>      -0.00101993      -0.00043892       0.00241887 </v>
   <v>      -0.00010500       0.00279326       0.00453295 </v>
   <v>      -0.00006432       0.00051617       0.00169449 </v>
   <v>       0.00093345      -0.00026879       0.00170141 </v>
  </varray>
  <varray name="stress" >
   <v>      -2.06601726      -0.00112809       0.00993704 </v>
   <v>      -0.00112808      -2.05640720      -0.00399517 </v>
   <v>       0.00993706      -0.00399516      -2.16625989 </v>
  </varray>
  <energy>
   <i name="e_fr_energy">   -427.46747908 </i>
   <i name="e_wo_entrp">   -427.44086917 </i>
   <i name="e_0_energy">     -0.05321980 </i>
  </energy>
  <time name="totalsc"> 7097.10 7111.90</time>
  <eigenvalues>
   <array>
    <dimension dim="1">band</dimension>
    <dimension dim="2">kpoint</dimension>
    <dimension dim="3">spin</dimension>
    <field>eigene</field>
    <field>occ</field>
    <set>
     <set comment="spin 1">
      <set comment="kpoint 1">
       <r>  -18.6063    1.0000 </r>
       <r>  -18.5938    1.0000 </r>
       <r>  -18.5935    1.0000 </r>
       <r>  -18.5930    1.0000 </r>
       <r>   -9.4525    1.0000 </r>
       <r>   -8.9602    1.0000 </r>
       <r>   -8.1741    1.0000 </r>
       <r>   -7.5992    1.0000 </r>
       <r>   -7.5990    1.0000 </r>
       <r>   -7.5983    1.0000 </r>
       <r>   -7.5773    1.0000 </r>
       <r>   -7.5769    1.0000 </r>
       <r>   -7.5756    1.0000 </r>
       <r>   -7.2207    1.0000 </r>
       <r>   -7.2192    1.0000 </r>
       <r>   -7.2185    1.0000 </r>
       <r>   -7.1999    1.0000 </r>
       <r>   -7.1463    1.0000 </r>
       <r>   -7.1450    1.0000 </r>
       <r>   -7.1433    1.0000 </r>
       <r>   -6.6286    1.0000 </r>
       <r>   -6.6269    1.0000 </r>
       <r>   -6.6266    1.0000 </r>
       <r>   -6.4864    1.0000 </r>
       <r>   -6.4851    1.0000 </r>
       <r>   -6.4845    1.0000 </r>
       <r>   -6.2512    1.0000 </r>
       <r>   -5.9482    1.0000 </r>
       <r>   -5.9479    1.0000 </r>
       <r>   -5.9472    1.0000 </r>
       <r>   -5.7420    1.0000 </r>
       <r>   -5.7415    1.0000 </r>
       <r>   -5.7411    1.0000 </r>
       <r>   -5.6689    1.0000 </r>
       <r>   -5.6254    1.0000 </r>
       <r>   -5.6249    1.0000 </r>
       <r>   -5.4386    1.0000 </r>
       <r>   -5.4104    1.0000 </r>
       <r>   -5.4100    1.0000 </r>
       <r>   -5.4098    1.0000 </r>
       <r>   -5.3416    1.0000 </r>
       <r>   -5.3412    1.0000 </r>
       <r>   -5.3406    1.0000 </r>
       <r>   -5.3237    1.0000 </r>
       <r>   -5.2827    1.0000 </r>
       <r>   -5.2825    1.0000 </r>
       <r>   -5.2154    1.0000 </r>
       <r>   -5.2087    1.0000 </r>
       <r>   -5.2084    1.0000 </r>
       <r>   -5.2080    1.0000 </r>
       <r>   -5.1339    1.0000 </r>
       <r>   -5.1335    1.0000 </r>
       <r>   -5.1228    1.0000 </r>
       <r>   -5.0557    1.0000 </r>
       <r>   -5.0332    1.0000 </r>
       <r>   -5.0327    1.0000 </r>
       <r>   -5.0038    1.0000 </r>
       <r>   -5.0033    1.0000 </r>
       <r>   -5.0030    1.0000 </r>
       <r>   -4.9774    1.0000 </r>
       <r>   -4.9772    1.0000 </r>
       <r>   -4.9765    1.0000 </r>
       <r>   -4.9622    1.0000 </r>
       <r>   -4.9617    1.0000 </r>
       <r>   -4.9563    1.0000 </r>
       <r>   -4.9563    1.0000 </r>
       <r>   -4.9562    1.0000 </r>
       <r>   -4.9348    1.0000 </r>
       <r>   -4.8823    1.0000 </r>
       <r>   -4.8819    1.0000 </r>
       <r>   -4.8811    1.0000 </r>
       <r>   -4.8534    1.0000 </r>
       <r>   -4.8531    1.0000 </r>
       <r>   -4.8525    1.0000 </r>
       <r>   -4.8406    1.0000 </r>
       <r>   -4.8247    1.0000 </r>
       <r>   -4.8245    1.0000 </r>
       <r>   -4.8121    1.0000 </r>
       <r>   -4.8115    1.0000 </r>
       <r>   -4.8110    1.0000 </r>
       <r>   -4.7491    1.0000 </r>
       <r>   -4.7488    1.0000 </r>
       <r>   -4.7485    1.0000 </r>
       <r>   -4.7062    1.0000 </r>
       <r>   -4.7061    1.0000 </r>
       <r>   -4.7051    1.0000 </r>
       <r>   -4.7025    1.0000 </r>
       <r>   -4.6940    1.0000 </r>
       <r>   -4.6937    1.0000 </r>
       <r>   -4.6220    1.0000 </r>
       <r>   -4.6213    1.0000 </r>
       <r>   -4.6208    1.0000 </r>
       <r>   -4.5862    1.0000 </r>
       <r>   -4.5859    1.0000 </r>
       <r>   -4.5855    1.0000 </r>
       <r>   -4.5818    1.0000 </r>
       <r>   -4.5779    1.0000 </r>
       <r>   -4.5776    1.0000 </r>
       <r>   -4.5455    1.0000 </r>
       <r>   -4.5387    1.0000 </r>
       <r>   -4.5385    1.0000 </r>
       <r>   -4.5382    1.0000 </r>
       <r>   -4.5381    1.0000 </r>
       <r>   -4.5373    1.0000 </r>
       <r>   -4.5278    1.0000 </r>
       <r>   -4.5276    1.0000 </r>
       <r>   -4.5274    1.0000 </r>
       <r>   -4.5040    1.0000 </r>
       <r>   -4.5036    1.0000 </r>
       <r>   -4.5031    1.0000 </r>
       <r>   -4.4605    1.0000 </r>
       <r>   -4.4603    1.0000 </r>
       <r>   -4.4601    1.0000 </r>
       <r>   -4.4544    1.0000 </r>
       <r>   -4.4543    1.0000 </r>
       <r>   -4.4542    1.0000 </r>
       <r>   -4.4475    1.0000 </r>
       <r>   -4.4464    1.0000 </r>
       <r>   -4.4453    1.0000 </r>
       <r>   -4.4079    1.0000 </r>
       <r>   -4.4069    1.0000 </r>
       <r>   -4.4057    1.0000 </r>
       <r>   -4.3891    1.0000 </r>
       <r>   -4.3888    1.0000 </r>
       <r>   -4.3503    1.0000 </r>
       <r>   -4.3497    1.0000 </r>
       <r>   -4.3489    1.0000 </r>
       <r>   -4.3376    1.0000 </r>
       <r>   -4.2435    1.0000 </r>
       <r>   -4.2427    1.0000 </r>
       <r>   -4.2289    1.0000 </r>
       <r>   -4.2280    1.0000 </r>
       <r>   -4.2278    1.0000 </r>
       <r>   -4.2199    1.0000 </r>
       <r>   -4.2196    1.0000 </r>
       <r>   -4.2190    1.0000 </r>
       <r>   -4.2179    1.0000 </r>
       <r>   -4.2171    1.0000 </r>
       <r>   -4.2165    1.0000 </r>
       <r>   -4.2139    1.0000 </r>
       <r>   -4.2138    1.0000 </r>
       <r>   -4.2132    1.0000 </r>
       <r>   -4.2112    1.0000 </r>
       <r>   -4.2110    1.0000 </r>
       <r>   -4.2103    1.0000 </r>
       <r>   -4.1794    1.0000 </r>
       <r>   -4.1792    1.0000 </r>
       <r>   -4.1792    1.0000 </r>
       <r>   -4.0977    1.0000 </r>
       <r>   -4.0969    1.0000 </r>
       <r>   -4.0967    1.0000 </r>
       <r>   -4.0789    1.0000 </r>
       <r>   -4.0785    1.0000 </r>
       <r>   -4.0782    1.0000 </r>
       <r>   -4.0773    1.0000 </r>
       <r>   -4.0762    1.0000 </r>
       <r>   -4.0759    1.0000 </r>
       <r>   -4.0567    1.0000 </r>
       <r>   -4.0562    1.0000 </r>
       <r>   -4.0557    1.0000 </r>
       <r>   -4.0455    1.0000 </r>
       <r>   -4.0439    1.0000 </r>
       <r>   -4.0434    1.0000 </r>
       <r>   -4.0170    1.0000 </r>
       <r>   -4.0043    1.0000 </r>
       <r>   -4.0042    1.0000 </r>
       <r>   -4.0040    1.0000 </r>
       <r>   -3.9699    1.0000 </r>
       <r>   -3.9695    1.0000 </r>
       <r>   -3.9383    1.0000 </r>
       <r>   -3.9383    1.0000 </r>
       <r>   -3.9374    1.0000 </r>
       <r>   -3.9291    1.0000 </r>
       <r>   -3.9287    1.0000 </r>
       <r>   -3.9287    1.0000 </r>
       <r>   -3.9100    1.0000 </r>
       <r>   -3.9090    1.0000 </r>
       <r>   -3.9089    1.0000 </r>
       <r>   -3.8798    1.0000 </r>
       <r>   -3.8792    1.0000 </r>
       <r>   -3.8790    1.0000 </r>
       <r>   -3.8779    1.0000 </r>
       <r>   -3.8768    1.0000 </r>
       <r>   -3.8765    1.0000 </r>
       <r>   -3.8320    1.0000 </r>
       <r>   -3.8310    1.0000 </r>
       <r>   -3.8306    1.0000 </r>
       <r>   -3.8302    1.0000 </r>
       <r>   -3.8121    1.0000 </r>
       <r>   -3.8116    1.0000 </r>
       <r>   -3.8114    1.0000 </r>
       <r>   -3.7983    1.0000 </r>
       <r>   -3.7978    1.0000 </r>
       <r>   -3.7972    1.0000 </r>
       <r>   -3.7862    1.0000 </r>
       <r>   -3.7860    1.0000 </r>
       <r>   -3.7855    1.0000 </r>
       <r>   -3.7749    1.0000 </r>
       <r>   -3.7745    1.0000 </r>
       <r>   -3.7739    1.0000 </r>
       <r>   -3.7514    1.0000 </r>
       <r>   -3.7508    1.0000 </r>
       <r>   -3.7501    1.0000 </r>
       <r>   -3.7089    1.0000 </r>
       <r>   -3.7087    1.0000 </r>
       <r>   -3.7084    1.0000 </r>
       <r>   -3.7070    1.0000 </r>
       <r>   -3.7068    1.0000 </r>
       <r>   -3.7063    1.0000 </r>
       <r>   -3.6822    1.0000 </r>
       <r>   -3.6819    1.0000 </r>
       <r>   -3.6818    1.0000 </r>
       <r>   -3.6766    1.0000 </r>
       <r>   -3.6764    1.0000 </r>
       <r>   -3.6760    1.0000 </r>
       <r>   -3.6688    1.0000 </r>
       <r>   -3.6683    1.0000 </r>
       <r>   -3.6409    1.0000 </r>
       <r>   -3.6402    1.0000 </r>
       <r>   -3.6396    1.0000 </r>
       <r>   -3.6175    1.0000 </r>
       <r>   -3.6157    1.0000 </r>
       <r>   -3.6152    1.0000 </r>
       <r>   -3.6146    1.0000 </r>
       <r>   -3.6029    1.0000 </r>
       <r>   -3.6025    1.0000 </r>
       <r>   -3.6022    1.0000 </r>
       <r>   -3.6004    1.0000 </r>
       <r>   -3.6004    1.0000 </r>
       <r>   -3.6001    1.0000 </r>
       <r>   -3.5976    1.0000 </r>
       <r>   -3.5972    1.0000 </r>
       <r>   -3.5961    1.0000 </r>
       <r>   -3.5816    1.0000 </r>
       <r>   -3.5808    1.0000 </r>
       <r>   -3.5803    1.0000 </r>
       <r>   -3.5507    1.0000 </r>
       <r>   -3.5503    1.0000 </r>
       <r>   -3.5494    1.0000 </r>
       <r>   -3.5373    1.0000 </r>
       <r>   -3.5299    1.0000 </r>
       <r>   -3.5116    1.0000 </r>
       <r>   -3.5116    1.0000 </r>
       <r>   -3.4476    1.0000 </r>
       <r>   -3.4474    1.0000 </r>
       <r>   -3.4472    1.0000 </r>
       <r>   -3.4418    1.0000 </r>
       <r>   -3.4341    1.0000 </r>
       <r>   -3.4334    1.0000 </r>
       <r>   -3.4332    1.0000 </r>
       <r>   -3.4280    1.0000 </r>
       <r>   -3.4278    1.0000 </r>
       <r>   -3.4272    1.0000 </r>
       <r>   -3.4191    1.0000 </r>
       <r>   -3.4190    1.0000 </r>
       <r>   -3.4185    1.0000 </r>
       <r>   -3.4179    1.0000 </r>
       <r>   -3.4178    1.0000 </r>
       <r>   -3.4154    1.0000 </r>
       <r>   -3.4152    1.0000 </r>
       <r>   -3.4151    1.0000 </r>
       <r>   -3.4099    1.0000 </r>
       <r>   -3.3983    1.0000 </r>
       <r>   -3.3980    1.0000 </r>
       <r>   -3.3976    1.0000 </r>
       <r>   -3.3861    1.0000 </r>
       <r>   -3.3859    1.0000 </r>
       <r>   -3.3749    1.0000 </r>
       <r>   -3.3628    1.0000 </r>
       <r>   -3.3624    1.0000 </r>
       <r>   -3.3614    1.0000 </r>
       <r>   -3.3495    1.0000 </r>
       <r>   -3.3494    1.0000 </r>
       <r>   -3.3468    1.0000 </r>
       <r>   -3.3468    1.0000 </r>
       <r>   -3.3463    1.0000 </r>
       <r>   -3.3360    1.0000 </r>
       <r>   -3.3358    1.0000 </r>
       <r>   -3.3357    1.0000 </r>
       <r>   -3.3148    1.0000 </r>
       <r>   -3.3145    1.0000 </r>
       <r>   -3.3047    1.0000 </r>
       <r>   -3.3042    1.0000 </r>
       <r>   -3.3037    1.0000 </r>
[...]
       <r>   -14.5220     0.0000     8.0000 </r>
       <r>   -14.4279     0.0000     8.0000 </r>
       <r>   -14.3337     0.0000     8.0000 </r>
       <r>   -14.2395     0.0000     8.0000 </r>
       <r>   -14.1453     0.0000     8.0000 </r>
       <r>   -14.0511     0.0000     8.0000 </r>
       <r>   -13.9569     0.0000     8.0000 </r>
       <r>   -13.8627     0.0000     8.0000 </r>
       <r>   -13.7685     0.0000     8.0000 </r>
       <r>   -13.6744     0.0000     8.0000 </r>
       <r>   -13.5802     0.0000     8.0000 </r>
       <r>   -13.4860     0.0000     8.0000 </r>
       <r>   -13.3918     0.0000     8.0000 </r>
       <r>   -13.2976     0.0000     8.0000 </r>
       <r>   -13.2034     0.0000     8.0000 </r>
       <r>   -13.1092     0.0000     8.0000 </r>
       <r>   -13.0151     0.0000     8.0000 </r>
       <r>   -12.9209     0.0000     8.0000 </r>
       <r>   -12.8267     0.0000     8.0000 </r>
       <r>   -12.7325     0.0000     8.0000 </r>
       <r>   -12.6383     0.0000     8.0000 </r>
       <r>   -12.5441     0.0000     8.0000 </r>
       <r>   -12.4499     0.0000     8.0000 </r>
       <r>   -12.3557     0.0000     8.0000 </r>
       <r>   -12.2616     0.0000     8.0000 </r>
       <r>   -12.1674     0.0000     8.0000 </r>
       <r>   -12.0732     0.0000     8.0000 </r>
       <r>   -11.9790     0.0000     8.0000 </r>
       <r>   -11.8848     0.0000     8.0000 </r>
       <r>   -11.7906     0.0000     8.0000 </r>
       <r>   -11.6964     0.0000     8.0000 </r>
       <r>   -11.6022     0.0000     8.0000 </r>
       <r>   -11.5081     0.0000     8.0000 </r>
       <r>   -11.4139     0.0000     8.0000 </r>
       <r>   -11.3197     0.0000     8.0000 </r>
       <r>   -11.2255     0.0000     8.0000 </r>
       <r>   -11.1313     0.0000     8.0000 </r>
       <r>   -11.0371     0.0000     8.0000 </r>
       <r>   -10.9429     0.0000     8.0000 </r>
       <r>   -10.8488     0.0000     8.0000 </r>
       <r>   -10.7546     0.0000     8.0000 </r>
       <r>   -10.6604     0.0000     8.0000 </r>
       <r>   -10.5662     0.0000     8.0000 </r>
       <r>   -10.4720     0.0000     8.0000 </r>
       <r>   -10.3778     0.0000     8.0000 </r>
       <r>   -10.2836     0.0000     8.0000 </r>
       <r>   -10.1894     0.0000     8.0000 </r>
       <r>   -10.0953     0.0000     8.0000 </r>
       <r>   -10.0011     0.0000     8.0000 </r>
       <r>    -9.9069     0.0000     8.0000 </r>
       <r>    -9.8127     0.0000     8.0000 </r>
       <r>    -9.7185     0.0000     8.0000 </r>
       <r>    -9.6243     0.0000     8.0000 </r>
       <r>    -9.5301     0.0186     8.0018 </r>
       <r>    -9.4360     0.8934     8.0859 </r>
       <r>    -9.3418     3.2439     8.3914 </r>
       <r>    -9.2476     5.0471     8.8668 </r>
       <r>    -9.1534     0.2761     8.8928 </r>
       <r>    -9.0592     5.8298     9.4419 </r>
       <r>    -8.9650     6.2430    10.0299 </r>
       <r>    -8.8708     6.4688    10.6392 </r>
       <r>    -8.7766     6.1937    11.2226 </r>
       <r>    -8.6825     0.5779    11.2770 </r>
       <r>    -8.5883    15.4398    12.7312 </r>
       <r>    -8.4941    11.3252    13.7979 </r>
       <r>    -8.3999     6.2590    14.3874 </r>
       <r>    -8.3057     6.2119    14.9725 </r>
       <r>    -8.2115     0.8182    15.0496 </r>
       <r>    -8.1173    12.8923    16.2638 </r>
       <r>    -8.0232    14.5827    17.6373 </r>
       <r>    -7.9290    13.1763    18.8784 </r>
       <r>    -7.8348    19.7256    20.7363 </r>
       <r>    -7.7406     6.8903    21.3852 </r>
       <r>    -7.6464     5.9370    21.9444 </r>
       <r>    -7.5522    13.0354    23.1722 </r>
       <r>    -7.4580    15.8305    24.6632 </r>
       <r>    -7.3638    16.4684    26.2143 </r>
       <r>    -7.2697     8.7585    27.0392 </r>
       <r>    -7.1755    20.6564    28.9848 </r>
       <r>    -7.0813    16.2003    30.5107 </r>
       <r>    -6.9871    13.2768    31.7612 </r>
       <r>    -6.8929    16.8069    33.3441 </r>
       <r>    -6.7987    31.7176    36.3315 </r>
       <r>    -6.7045    15.0968    37.7534 </r>
       <r>    -6.6104    18.4699    39.4931 </r>
       <r>    -6.5162    13.4662    40.7614 </r>
       <r>    -6.4220    24.3681    43.0565 </r>
       <r>    -6.3278    23.6684    45.2858 </r>
       <r>    -6.2336    18.7583    47.0526 </r>
       <r>    -6.1394    46.5326    51.4353 </r>
       <r>    -6.0452    21.0234    53.4155 </r>
       <r>    -5.9510    46.0077    57.7488 </r>
       <r>    -5.8569    21.0960    59.7357 </r>
       <r>    -5.7627    20.6215    61.6780 </r>
       <r>    -5.6685    59.7759    67.3081 </r>
       <r>    -5.5743    86.9474    75.4974 </r>
       <r>    -5.4801    74.0399    82.4710 </r>
       <r>    -5.3859    60.3751    88.1575 </r>
       <r>    -5.2917    95.0744    97.1123 </r>
       <r>    -5.1975    89.4794   105.5400 </r>
       <r>    -5.1034   107.8962   115.7024 </r>
       <r>    -5.0092   119.2375   126.9330 </r>
       <r>    -4.9150   145.2713   140.6156 </r>
       <r>    -4.8208   127.7204   152.6452 </r>
       <r>    -4.7266   126.7318   164.5817 </r>
       <r>    -4.6324   166.0495   180.2213 </r>
       <r>    -4.5382   204.6265   199.4944 </r>
       <r>    -4.4441   241.1721   222.2097 </r>
       <r>    -4.3499   284.7811   249.0323 </r>
       <r>    -4.2557   253.9768   272.9535 </r>
       <r>    -4.1615   219.8649   293.6619 </r>
       <r>    -4.0673   206.6432   313.1249 </r>
       <r>    -3.9731   219.5939   333.8078 </r>
       <r>    -3.8789   272.4582   359.4697 </r>
       <r>    -3.7847   278.3203   385.6838 </r>
       <r>    -3.6906   321.7404   415.9875 </r>
       <r>    -3.5964   318.2818   445.9654 </r>
       <r>    -3.5022   325.1689   476.5920 </r>
       <r>    -3.4080   392.8540   513.5937 </r>
       <r>    -3.3138   477.5611   558.5736 </r>
       <r>    -3.2196   505.7917   606.2125 </r>
       <r>    -3.1254   438.6524   647.5277 </r>
       <r>    -3.0313   452.2748   690.1260 </r>
       <r>    -2.9371   326.0455   720.8352 </r>
       <r>    -2.8429   362.9052   755.0161 </r>
       <r>    -2.7487   346.7334   787.6737 </r>
       <r>    -2.6545   410.0390   826.2940 </r>
       <r>    -2.5603   409.5907   864.8720 </r>
       <r>    -2.4661   388.9158   901.5027 </r>
       <r>    -2.3719   429.4330   941.9496 </r>
       <r>    -2.2778   419.7613   981.4856 </r>
       <r>    -2.1836   440.6168  1022.9858 </r>
       <r>    -2.0894   530.3393  1072.9368 </r>
       <r>    -1.9952   616.1136  1130.9665 </r>
       <r>    -1.9010   434.6767  1171.9073 </r>
       <r>    -1.8068   162.1742  1187.1820 </r>
       <r>    -1.7126    69.4498  1193.7232 </r>
       <r>    -1.6185    52.2829  1198.6476 </r>
       <r>    -1.5243    58.5851  1204.1655 </r>
       <r>    -1.4301    59.2728  1209.7482 </r>
       <r>    -1.3359    89.6376  1218.1909 </r>
       <r>    -1.2417    59.3646  1223.7823 </r>
       <r>    -1.1475    35.9814  1227.1712 </r>
       <r>    -1.0533    11.6202  1228.2657 </r>
       <r>    -0.9591    47.7778  1232.7658 </r>
       <r>    -0.8650    37.9711  1236.3421 </r>
       <r>    -0.7708    43.9625  1240.4828 </r>
       <r>    -0.6766    47.0080  1244.9103 </r>
       <r>    -0.5824    58.1736  1250.3895 </r>
       <r>    -0.4882    20.2573  1252.2975 </r>
       <r>    -0.3940    34.8540  1255.5803 </r>
       <r>    -0.2998    37.5715  1259.1190 </r>
       <r>    -0.2057    41.2291  1263.0023 </r>
       <r>    -0.1115    23.6409  1265.2289 </r>
       <r>    -0.0173    35.1000  1268.5349 </r>
       <r>     0.0769    48.6929  1273.1211 </r>
       <r>     0.1711    42.4445  1277.1188 </r>
       <r>     0.2653    12.9547  1278.3390 </r>
       <r>     0.3595    25.5853  1280.7488 </r>
       <r>     0.4537    43.3420  1284.8310 </r>
       <r>     0.5478    34.0701  1288.0399 </r>
       <r>     0.6420    28.5123  1290.7254 </r>
       <r>     0.7362    54.2036  1295.8307 </r>
       <r>     0.8304    35.4700  1299.1715 </r>
       <r>     0.9246    31.4038  1302.1293 </r>
       <r>     1.0188    29.1479  1304.8747 </r>
       <r>     1.1130    29.0316  1307.6091 </r>
       <r>     1.2071    47.1806  1312.0529 </r>
       <r>     1.3013    19.5352  1313.8928 </r>
       <r>     1.3955    20.2060  1315.7959 </r>
       <r>     1.4897    37.2350  1319.3030 </r>
       <r>     1.5839    32.1501  1322.3311 </r>
       <r>     1.6781    27.8994  1324.9589 </r>
       <r>     1.7723    20.3789  1326.8783 </r>
       <r>     1.8665    41.4712  1330.7843 </r>
       <r>     1.9606    37.1976  1334.2878 </r>
       <r>     2.0548    39.4091  1337.9997 </r>
       <r>     2.1490    24.6469  1340.3211 </r>
       <r>     2.2432    37.8448  1343.8855 </r>
       <r>     2.3374    24.6819  1346.2103 </r>
       <r>     2.4316    22.4705  1348.3267 </r>
       <r>     2.5258    14.8125  1349.7218 </r>
       <r>     2.6200    11.7596  1350.8294 </r>
       <r>     2.7141    19.6635  1352.6815 </r>
       <r>     2.8083    32.5987  1355.7518 </r>
       <r>     2.9025    28.1121  1358.3996 </r>
       <r>     2.9967    27.1329  1360.9552 </r>
       <r>     3.0909    19.4522  1362.7873 </r>
       <r>     3.1851    23.3610  1364.9876 </r>
       <r>     3.2793    21.1533  1366.9800 </r>
       <r>     3.3734     8.6988  1367.7993 </r>
       <r>     3.4676    30.5918  1370.6806 </r>
       <r>     3.5618    32.0004  1373.6946 </r>
       <r>     3.6560    27.8091  1376.3139 </r>
       <r>     3.7502     7.1713  1376.9893 </r>
       <r>     3.8444    21.6046  1379.0242 </r>
       <r>     3.9386    44.4223  1383.2082 </r>
       <r>     4.0328    32.6041  1386.2791 </r>
       <r>     4.1269    41.9460  1390.2298 </r>
       <r>     4.2211    51.0590  1395.0389 </r>
       <r>     4.3153    35.2849  1398.3623 </r>
       <r>     4.4095    18.4521  1400.1002 </r>
       <r>     4.5037    23.0894  1402.2749 </r>
       <r>     4.5979    31.6096  1405.2521 </r>
       <r>     4.6921    38.0001  1408.8313 </r>
       <r>     4.7862    40.8880  1412.6824 </r>
       <r>     4.8804    47.7612  1417.1808 </r>
       <r>     4.9746    38.2487  1420.7834 </r>
       <r>     5.0688    40.1595  1424.5658 </r>
       <r>     5.1630    37.0347  1428.0540 </r>
       <r>     5.2572    28.7894  1430.7656 </r>
       <r>     5.3514    59.5130  1436.3709 </r>
       <r>     5.4456    37.1870  1439.8735 </r>
       <r>     5.5397    54.2236  1444.9806 </r>
       <r>     5.6339    33.9588  1448.1791 </r>
       <r>     5.7281    34.1775  1451.3982 </r>
       <r>     5.8223    33.8666  1454.5879 </r>
       <r>     5.9165    32.9809  1457.6943 </r>
       <r>     6.0107    61.4970  1463.4865 </r>
       <r>     6.1049    54.3279  1468.6035 </r>
       <r>     6.1990    44.7096  1472.8145 </r>
       <r>     6.2932    40.3951  1476.6192 </r>
       <r>     6.3874    36.3684  1480.0446 </r>
       <r>     6.4816    51.2404  1484.8708 </r>
       <r>     6.5758    42.7919  1488.9012 </r>
       <r>     6.6700    35.3580  1492.2315 </r>
       <r>     6.7642    37.2973  1495.7444 </r>
       <r>     6.8584    59.2404  1501.3241 </r>
       <r>     6.9525    49.0109  1505.9402 </r>
       <r>     7.0467    36.5696  1509.3846 </r>
       <r>     7.1409    26.8262  1511.9113 </r>
       <r>     7.2351     0.9418  1512.0000 </r>
       <r>     7.3293     0.0001  1512.0000 </r>
       <r>     7.4235     0.0000  1512.0000 </r>
       <r>     7.5177     0.0000  1512.0000 </r>
       <r>     7.6118     0.0000  1512.0000 </r>
       <r>     7.7060     0.0000  1512.0000 </r>
       <r>     7.8002     0.0000  1512.0000 </r>
       <r>     7.8944     0.0000  1512.0000 </r>
       <r>     7.9886     0.0000  1512.0000 </r>
       <r>     8.0828     0.0000  1512.0000 </r>
       <r>     8.1770     0.0000  1512.0000 </r>
       <r>     8.2712     0.0000  1512.0000 </r>
       <r>     8.3653     0.0000  1512.0000 </r>
      </set>
     </set>
    </array>
   </total>
  </dos>
 </calculation>
 <structure name="finalpos" >
  <crystal>
   <varray name="basis" >
    <v>      10.28518105       0.00000000       0.00000000 </v>
    <v>       5.14259052       8.90722807       0.00000000 </v>
    <v>       0.00000000       0.00000000      27.79016876 </v>
   </varray>
   <i name="volume">   2545.92553775 </i>
   <varray name="rec_basis" >
    <v>       0.09722726      -0.05613419       0.00000000 </v>
    <v>       0.00000000       0.11226837       0.00000000 </v>
    <v>       0.00000000       0.00000000       0.03598395 </v>
   </varray>
  </crystal>
  <varray name="positions" >
   <v>       0.00000000       0.00000000       0.22663990 </v>
   <v>       0.00000000       0.50000000       0.22663990 </v>
   <v>       0.50000000       0.00000000       0.22663990 </v>
   <v>       0.50000000       0.50000000       0.22663990 </v>
   <v>       0.00000000       0.25000000       0.22663990 </v>
   <v>       0.00000000       0.75000000       0.22663990 </v>
   <v>       0.50000000       0.25000000       0.22663990 </v>
   <v>       0.50000000       0.75000000       0.22663990 </v>
   <v>       0.25000000       0.00000000       0.22663990 </v>
   <v>       0.25000000       0.50000000       0.22663990 </v>
   <v>       0.75000000       0.00000000       0.22663990 </v>
   <v>       0.75000000       0.50000000       0.22663990 </v>
   <v>       0.25000000       0.25000000       0.22663990 </v>
   <v>       0.25000000       0.75000000       0.22663990 </v>
   <v>       0.75000000       0.25000000       0.22663990 </v>
   <v>       0.75000000       0.75000000       0.22663990 </v>
   <v>       0.16666666       0.16666666       0.30218653 </v>
   <v>       0.16666666       0.66666666       0.30218653 </v>
   <v>       0.66666666       0.16666666       0.30218653 </v>
   <v>       0.66666666       0.66666666       0.30218653 </v>
   <v>       0.16666666       0.41666666       0.30218653 </v>
   <v>       0.16666666       0.91666666       0.30218653 </v>
   <v>       0.66666666       0.41666666       0.30218653 </v>
   <v>       0.66666666       0.91666666       0.30218653 </v>
   <v>       0.41666666       0.16666666       0.30218653 </v>
   <v>       0.41666666       0.66666666       0.30218653 </v>
   <v>       0.91666666       0.16666666       0.30218653 </v>
   <v>       0.91666666       0.66666666       0.30218653 </v>
   <v>       0.41666666       0.41666666       0.30218653 </v>
   <v>       0.41666666       0.91666666       0.30218653 </v>
   <v>       0.91666666       0.41666666       0.30218653 </v>
   <v>       0.91666666       0.91666666       0.30218653 </v>
   <v>       0.08333333       0.08333333       0.37716320 </v>
   <v>       0.08333333       0.58333333       0.37716320 </v>
   <v>       0.58333333       0.08333333       0.37716320 </v>
   <v>       0.58333333       0.58333333       0.37716320 </v>
   <v>       0.08351614       0.33324190       0.37729758 </v>
   <v>       0.08351614       0.83324190       0.37729758 </v>
   <v>       0.58351614       0.33324190       0.37729758 </v>
   <v>       0.58351614       0.83324190       0.37729758 </v>
   <v>       0.33324190       0.08351614       0.37729758 </v>
   <v>       0.33324190       0.58351614       0.37729758 </v>
   <v>       0.83324190       0.08351614       0.37729758 </v>
   <v>       0.83324190       0.58351614       0.37729758 </v>
   <v>       0.33324190       0.33324190       0.37729758 </v>
   <v>       0.33324190       0.83324190       0.37729758 </v>
   <v>       0.83324190       0.33324190       0.37729758 </v>
   <v>       0.83324190       0.83324190       0.37729758 </v>
   <v>       0.00012997       0.00012997       0.45242342 </v>
   <v>       0.00012997       0.50012997       0.45242342 </v>
   <v>       0.50012997       0.00012997       0.45242342 </v>
   <v>       0.50012997       0.50012997       0.45242342 </v>
   <v>       0.00012997       0.24974005       0.45242342 </v>
   <v>       0.00012997       0.74974005       0.45242342 </v>
   <v>       0.50012997       0.24974005       0.45242342 </v>
   <v>       0.50012997       0.74974005       0.45242342 </v>
   <v>       0.24974005       0.00012997       0.45242342 </v>
   <v>       0.24974005       0.50012997       0.45242342 </v>
   <v>       0.74974005       0.00012997       0.45242342 </v>
   <v>       0.74974005       0.50012997       0.45242342 </v>
   <v>       0.25000000       0.25000000       0.45288750 </v>
   <v>       0.25000000       0.75000000       0.45288750 </v>
   <v>       0.75000000       0.25000000       0.45288750 </v>
   <v>       0.75000000       0.75000000       0.45288750 </v>
   <v>       0.16660598       0.16660598       0.52813907 </v>
   <v>       0.16660598       0.66660598       0.52813907 </v>
   <v>       0.66660598       0.16660598       0.52813907 </v>
   <v>       0.66660598       0.66660598       0.52813907 </v>
   <v>       0.16660598       0.41678801       0.52813907 </v>
   <v>       0.16660598       0.91678801       0.52813907 </v>
   <v>       0.66660598       0.41678801       0.52813907 </v>
   <v>       0.66660598       0.91678801       0.52813907 </v>
   <v>       0.41678801       0.16660598       0.52813907 </v>
   <v>       0.41678801       0.66660598       0.52813907 </v>
   <v>       0.91678801       0.16660598       0.52813907 </v>
   <v>       0.91678801       0.66660598       0.52813907 </v>
   <v>       0.41666666       0.41666666       0.52741939 </v>
   <v>       0.41666666       0.91666666       0.52741939 </v>
   <v>       0.91666666       0.41666666       0.52741939 </v>
   <v>       0.91666666       0.91666666       0.52741939 </v>
   <v>       0.08333333       0.08333333       0.60253339 </v>
   <v>       0.08333333       0.58333333       0.60253339 </v>
   <v>       0.58333333       0.08333333       0.60253339 </v>
   <v>       0.58333333       0.58333333       0.60253339 </v>
   <v>       0.08051549       0.33593300       0.60371353 </v>
   <v>       0.08130935       0.83434529       0.60320464 </v>
   <v>       0.58130935       0.33434529       0.60320464 </v>
   <v>       0.58130935       0.83434529       0.60320464 </v>
   <v>       0.33434529       0.08130935       0.60320464 </v>
   <v>       0.33434529       0.58130935       0.60320464 </v>
   <v>       0.83434529       0.08130935       0.60320464 </v>
   <v>       0.83434529       0.58130935       0.60320464 </v>
   <v>       0.33434529       0.33434529       0.60320464 </v>
   <v>       0.33434529       0.83434529       0.60320464 </v>
   <v>       0.83434529       0.33434529       0.60320464 </v>
   <v>       0.83434529       0.83434529       0.60320464 </v>
   <v>       0.49714648       0.49714648       0.68057248 </v>
   <v>       0.49714648       0.99714648       0.68057248 </v>
   <v>       0.99714648       0.49714648       0.68057248 </v>
   <v>       0.99714648       0.99714648       0.68057248 </v>
   <v>       0.49714648       0.25570704       0.68057248 </v>
   <v>       0.49714648       0.75570704       0.68057248 </v>
   <v>       0.99714648       0.25570704       0.68057248 </v>
   <v>       0.99714648       0.75570704       0.68057248 </v>
   <v>       0.25570704       0.49714648       0.68057248 </v>
   <v>       0.25570704       0.99714648       0.68057248 </v>
   <v>       0.75570704       0.49714648       0.68057248 </v>
   <v>       0.75570704       0.99714648       0.68057248 </v>
   <v>       0.25000000       0.25000000       0.67480871 </v>
   <v>       0.25000000       0.75000000       0.67480871 </v>
   <v>       0.75000000       0.25000000       0.67480871 </v>
   <v>       0.75000000       0.75000000       0.67480871 </v>
   <v>       0.08333333       0.08333333       0.72043888 </v>
   <v>       0.08333333       0.58333333       0.72043888 </v>
   <v>       0.58333333       0.08333333       0.72043888 </v>
   <v>       0.58333333       0.58333333       0.72043888 </v>
  </varray>
 </structure>
</modeling>
