<?xml version="1.0" encoding="ISO-8859-1"?>
<modeling>
 <generator>
  <i name="program" type="string">vasp </i>
  <i name="version" type="string">5.4.4.18Apr17-6-g9f103f2a35  </i>
  <i name="subversion" type="string">(build Feb 09 2021 16:27:36) complex            parallel </i>
  <i name="platform" type="string">IFC15_impi </i>
  <i name="date" type="string">2021 04 29 </i>
  <i name="time" type="string">05:12:30 </i>
 </generator>
 <incar>
  <i type="int" name="ISTART">     0</i>
  <i type="string" name="PREC">a</i>
  <i type="logical" name="ADDGRID"> T  </i>
  <i type="int" name="NELM">   300</i>
  <i type="int" name="NELMIN">     5</i>
  <i type="int" name="IBRION">    -1</i>
  <i name="EDIFF">      0.00000001</i>
  <i name="ENCUT">    500.00000000</i>
  <i type="logical" name="LREAL"> F  </i>
  <i type="int" name="ISMEAR">     0</i>
  <i name="SIGMA">      0.05000000</i>
  <i type="logical" name="LWAVE"> F  </i>
  <i type="logical" name="LCHARG"> F  </i>
  <v type="int" name="KPOINT_BSE">    -1     0     0     0</v>
  <i type="int" name="NELM">   300</i>
  <i type="logical" name="LDIPOL"> T  </i>
  <i type="int" name="IDIPOL">     3</i>
 </incar>
 <structure name="primitive_cell" >
  <crystal>
   <varray name="basis" >
    <v>      17.03433609       0.00000000       0.00000000 </v>
    <v>      -8.51716805      14.75216779       0.00000000 </v>
    <v>       0.00000000       0.00000000      31.29407310 </v>
   </varray>
   <i name="volume">   7863.99353597 </i>
   <varray name="rec_basis" >
    <v>       0.05870496       0.03389332       0.00000000 </v>
    <v>       0.00000000       0.06778665       0.00000000 </v>
    <v>       0.00000000       0.00000000       0.03195493 </v>
   </varray>
  </crystal>
  <varray name="positions" >
   <v>       0.04889542       0.39944771      -0.00431747 </v>
   <v>       0.02661586       0.22338414      -0.00509755 </v>
   <v>       0.02661586      -0.44676828      -0.00509755 </v>
   <v>       0.25000000      -0.50000000      -0.00506925 </v>
   <v>      -0.14944771       0.39944771      -0.00431747 </v>
   <v>      -0.14944771       0.20110457      -0.00431747 </v>
   <v>       0.00060404      -0.49879191       0.07927097 </v>
   <v>       0.00060404       0.24939596       0.07927100 </v>
   <v>       0.25000000      -0.50000000       0.08094485 </v>
   <v>      -0.08333334       0.33333334       0.10951073 </v>
   <v>       0.16687125       0.33374251       0.11114905 </v>
   <v>       0.16687125      -0.41687125       0.11114905 </v>
   <v>       0.19676828       0.22338414      -0.00509755 </v>
   <v>       0.19676828      -0.27661586      -0.00509755 </v>
   <v>       0.35055229      -0.29889543      -0.00431747 </v>
   <v>       0.35055229       0.39944771      -0.00431747 </v>
   <v>      -0.25120809       0.24939596       0.07927100 </v>
   <v>      -0.30323172       0.22338414      -0.00509755 </v>
   <v>       0.02661586       0.05323172      -0.00509755 </v>
   <v>       0.02661586      -0.27661586      -0.00509755 </v>
   <v>       0.24879191       0.24939596       0.07927100 </v>
   <v>       0.24879191      -0.25060404       0.07927100 </v>
   <v>      -0.08374251       0.08312875       0.11114905 </v>
   <v>      -0.08374251      -0.41687125       0.11114905 </v>
   <v>      -0.25000000       0.00000000      -0.00506925 </v>
   <v>      -0.25000000      -0.50000000      -0.00506925 </v>
   <v>      -0.08333334       0.33333334       0.19342860 </v>
   <v>       0.41625749      -0.41687125       0.11114905 </v>
   <v>      -0.25000000       0.00000000       0.08094485 </v>
   <v>      -0.25000000      -0.50000000       0.08094485 </v>
   <v>       0.16660331       0.33320661       0.19452973 </v>
   <v>       0.16660331      -0.41660330       0.19452973 </v>
   <v>       0.00060404       0.00120809       0.07927097 </v>
   <v>       0.00060404      -0.25060404       0.07927100 </v>
   <v>      -0.33312875       0.08312875       0.11114905 </v>
   <v>      -0.33312875       0.33374251       0.11114905 </v>
   <v>       0.08333331       0.41666666       0.22222222 </v>
   <v>      -0.47338414      -0.44676828      -0.00509755 </v>
   <v>      -0.47338414      -0.27661586      -0.00509755 </v>
   <v>      -0.14944771      -0.29889543      -0.00431747 </v>
   <v>       0.35055229      -0.10055229      -0.00431747 </v>
   <v>      -0.14944771      -0.10055229      -0.00431747 </v>
   <v>       0.35055229       0.20110457      -0.00431747 </v>
   <v>      -0.49939596      -0.49879191       0.07927097 </v>
   <v>      -0.49939596      -0.25060404       0.07927100 </v>
   <v>       0.16687125       0.08312875       0.11114905 </v>
   <v>       0.16687125      -0.16625749       0.11114905 </v>
   <v>       0.41666666       0.33333334       0.10951073 </v>
   <v>       0.41666666      -0.16666666       0.10951073 </v>
   <v>      -0.08320661       0.08339670       0.19452973 </v>
   <v>      -0.08320661      -0.41660330       0.19452973 </v>
   <v>      -0.47338414       0.05323172      -0.00509755 </v>
   <v>      -0.47338414       0.22338414      -0.00509755 </v>
   <v>      -0.16666666       0.41666666       0.22222222 </v>
   <v>      -0.16666666       0.16666667       0.22222222 </v>
   <v>       0.41679339      -0.41660330       0.19452973 </v>
   <v>       0.08333331       0.16666669       0.22222222 </v>
   <v>       0.08333331      -0.33333331       0.22222222 </v>
   <v>       0.33333334      -0.33333333       0.22222222 </v>
   <v>       0.33333334       0.41666666       0.22222222 </v>
   <v>      -0.45110458       0.39944771      -0.00431747 </v>
   <v>       0.04889542      -0.10055229      -0.00431747 </v>
   <v>      -0.45110458      -0.10055229      -0.00431747 </v>
   <v>      -0.33339669       0.08339670       0.19452973 </v>
   <v>      -0.33339669       0.33320661       0.19452973 </v>
   <v>      -0.49939596       0.00120809       0.07927097 </v>
   <v>      -0.49939596       0.24939596       0.07927100 </v>
   <v>       0.25000000       0.00000000      -0.00506925 </v>
   <v>       0.16660331       0.08339670       0.19452973 </v>
   <v>       0.16660331      -0.16679339       0.19452973 </v>
   <v>      -0.33312875      -0.16625749       0.11114905 </v>
   <v>      -0.33312875      -0.41687125       0.11114905 </v>
   <v>       0.41666666       0.33333334       0.19342860 </v>
   <v>       0.41666666      -0.16666666       0.19342860 </v>
   <v>       0.25083021       0.00000000       0.08139676 </v>
   <v>      -0.08333334      -0.16666666       0.10951073 </v>
   <v>      -0.30323172      -0.27661586      -0.00509755 </v>
   <v>       0.08333331       0.41666666       0.30555555 </v>
   <v>      -0.41666669       0.16666669       0.22222222 </v>
   <v>      -0.25120809      -0.25060404       0.07927100 </v>
   <v>       0.41625749       0.08312875       0.11114905 </v>
   <v>      -0.16666666      -0.33333333       0.22222222 </v>
   <v>      -0.16666666      -0.08333334       0.22222222 </v>
   <v>       0.33333334      -0.08333334       0.22222222 </v>
   <v>       0.33333334       0.16666667       0.22222222 </v>
   <v>      -0.16666666       0.41666666       0.30555555 </v>
   <v>      -0.16666666       0.16666667       0.30555555 </v>
   <v>      -0.33339669      -0.16679339       0.19452973 </v>
   <v>      -0.33339669      -0.41660330       0.19452973 </v>
   <v>      -0.41666669      -0.33333331       0.22222222 </v>
   <v>       0.08333331       0.16666669       0.30555555 </v>
   <v>       0.08333331      -0.33333331       0.30555555 </v>
   <v>      -0.08333334      -0.16666666       0.19342860 </v>
   <v>      -0.41666669       0.41666666       0.22222222 </v>
   <v>      -0.41666669      -0.08333334       0.22222222 </v>
   <v>       0.33333334      -0.33333333       0.30555555 </v>
   <v>       0.33333334       0.41666666       0.30555555 </v>
   <v>       0.00000000       0.25000000       0.33333334 </v>
   <v>       0.00000000      -0.50000000       0.33333334 </v>
   <v>       0.25000000      -0.50000000       0.33333334 </v>
   <v>       0.08333331      -0.08333334       0.22222222 </v>
   <v>       0.41679339       0.08339670       0.19452973 </v>
   <v>      -0.25000000       0.25000000       0.33333334 </v>
   <v>       0.25000000       0.25000000       0.33333334 </v>
   <v>       0.25000000      -0.25000000       0.33333334 </v>
   <v>      -0.41666669       0.16666669       0.30555555 </v>
   <v>      -0.16666666      -0.33333333       0.30555555 </v>
   <v>      -0.16666666      -0.08333334       0.30555555 </v>
   <v>      -0.25000000       0.00000000       0.33333334 </v>
   <v>      -0.25000000      -0.50000000       0.33333334 </v>
   <v>       0.33333334      -0.08333334       0.30555555 </v>
   <v>       0.33333334       0.16666667       0.30555555 </v>
   <v>       0.00000000       0.00000000       0.33333334 </v>
   <v>       0.00000000      -0.25000000       0.33333334 </v>
   <v>      -0.41666669      -0.33333331       0.30555555 </v>
   <v>      -0.41666669       0.41666666       0.30555555 </v>
   <v>      -0.41666669      -0.08333334       0.30555555 </v>
   <v>      -0.50000000      -0.50000000       0.33333334 </v>
   <v>      -0.50000000      -0.25000000       0.33333334 </v>
   <v>       0.08333331      -0.08333334       0.30555555 </v>
   <v>       0.00000000       0.25000000       0.41666666 </v>
   <v>       0.00000000      -0.50000000       0.41666666 </v>
   <v>      -0.50000000       0.00000000       0.33333334 </v>
   <v>      -0.50000000       0.25000000       0.33333334 </v>
   <v>       0.25000000      -0.50000000       0.41666666 </v>
   <v>       0.25000000       0.00000000       0.33333334 </v>
   <v>      -0.25000000       0.25000000       0.41666666 </v>
   <v>       0.25000000       0.25000000       0.41666666 </v>
   <v>       0.25000000      -0.25000000       0.41666666 </v>
   <v>      -0.08333334       0.33333334       0.44444445 </v>
   <v>      -0.25000000      -0.25000000       0.33333334 </v>
   <v>       0.16666667       0.33333334       0.44444445 </v>
   <v>       0.16666667      -0.41666666       0.44444445 </v>
   <v>      -0.25000000       0.00000000       0.41666666 </v>
   <v>      -0.25000000      -0.50000000       0.41666666 </v>
   <v>       0.00000000       0.00000000       0.41666666 </v>
   <v>       0.00000000      -0.25000000       0.41666666 </v>
   <v>      -0.08333334       0.08333334       0.44444445 </v>
   <v>      -0.08333334      -0.41666666       0.44444445 </v>
   <v>      -0.50000000      -0.50000000       0.41666666 </v>
   <v>      -0.50000000      -0.25000000       0.41666666 </v>
   <v>       0.41666666      -0.41666666       0.44444445 </v>
   <v>      -0.33333333       0.08333334       0.44444445 </v>
   <v>      -0.33333333       0.33333334       0.44444445 </v>
   <v>       0.16666667       0.08333334       0.44444445 </v>
   <v>       0.16666667      -0.16666666       0.44444445 </v>
   <v>      -0.50000000       0.00000000       0.41666666 </v>
   <v>      -0.50000000       0.25000000       0.41666666 </v>
   <v>      -0.08333334       0.33333334      -0.49992920 </v>
   <v>       0.41666666       0.33333334       0.44444445 </v>
   <v>       0.41666666      -0.16666666       0.44444445 </v>
   <v>       0.16666667       0.33333334      -0.49992920 </v>
   <v>       0.16666667      -0.41666666      -0.49992920 </v>
   <v>       0.25000000       0.00000000       0.41666666 </v>
   <v>      -0.08333334       0.08333334      -0.49992920 </v>
   <v>      -0.08333334      -0.41666666      -0.49992920 </v>
   <v>      -0.25000000      -0.25000000       0.41666666 </v>
   <v>      -0.33333333      -0.16666666       0.44444445 </v>
   <v>      -0.33333333      -0.41666666       0.44444445 </v>
   <v>       0.41666666      -0.41666666      -0.49992920 </v>
   <v>      -0.08333334      -0.16666666       0.44444445 </v>
   <v>      -0.33333333       0.08333334      -0.49992920 </v>
   <v>      -0.33333333       0.33333334      -0.49992920 </v>
   <v>       0.41666666       0.08333334       0.44444445 </v>
   <v>       0.16666667       0.08333334      -0.49992920 </v>
   <v>       0.16666667      -0.16666666      -0.49992920 </v>
   <v>       0.41666666       0.33333334      -0.49992920 </v>
   <v>       0.41666666      -0.16666666      -0.49992920 </v>
   <v>      -0.33333333      -0.16666666      -0.49992920 </v>
   <v>      -0.33333333      -0.41666666      -0.49992920 </v>
   <v>      -0.08333334      -0.16666666      -0.49992920 </v>
   <v>       0.41666666       0.08333334      -0.49992920 </v>
  </varray>
 </structure>
 <varray name="primitive_index" >
  <v type="int" >        1 </v>
  <v type="int" >       25 </v>
  <v type="int" >       14 </v>
  <v type="int" >       22 </v>
  <v type="int" >        7 </v>
  <v type="int" >       11 </v>
  <v type="int" >       94 </v>
  <v type="int" >       97 </v>
  <v type="int" >      102 </v>
  <v type="int" >       39 </v>
  <v type="int" >       29 </v>
  <v type="int" >       42 </v>
  <v type="int" >       17 </v>
  <v type="int" >       18 </v>
  <v type="int" >       10 </v>
  <v type="int" >        5 </v>
  <v type="int" >      107 </v>
  <v type="int" >       19 </v>
  <v type="int" >       13 </v>
  <v type="int" >       26 </v>
  <v type="int" >      105 </v>
  <v type="int" >      106 </v>
  <v type="int" >       35 </v>
  <v type="int" >       36 </v>
  <v type="int" >       23 </v>
  <v type="int" >       24 </v>
  <v type="int" >      119 </v>
  <v type="int" >       34 </v>
  <v type="int" >      103 </v>
  <v type="int" >      104 </v>
  <v type="int" >      109 </v>
  <v type="int" >      114 </v>
  <v type="int" >       93 </v>
  <v type="int" >       98 </v>
  <v type="int" >       43 </v>
  <v type="int" >       31 </v>
  <v type="int" >       49 </v>
  <v type="int" >       16 </v>
  <v type="int" >       28 </v>
  <v type="int" >       12 </v>
  <v type="int" >        6 </v>
  <v type="int" >        8 </v>
  <v type="int" >        9 </v>
  <v type="int" >       96 </v>
  <v type="int" >      100 </v>
  <v type="int" >       41 </v>
  <v type="int" >       30 </v>
  <v type="int" >       37 </v>
  <v type="int" >       38 </v>
  <v type="int" >      123 </v>
  <v type="int" >      124 </v>
  <v type="int" >       15 </v>
  <v type="int" >       27 </v>
  <v type="int" >       59 </v>
  <v type="int" >       47 </v>
  <v type="int" >      122 </v>
  <v type="int" >       53 </v>
  <v type="int" >       54 </v>
  <v type="int" >       46 </v>
  <v type="int" >       57 </v>
  <v type="int" >        3 </v>
  <v type="int" >        2 </v>
  <v type="int" >        4 </v>
  <v type="int" >      115 </v>
  <v type="int" >      111 </v>
  <v type="int" >       95 </v>
  <v type="int" >       99 </v>
  <v type="int" >       21 </v>
  <v type="int" >      113 </v>
  <v type="int" >      110 </v>
  <v type="int" >       32 </v>
  <v type="int" >       44 </v>
  <v type="int" >      117 </v>
  <v type="int" >      118 </v>
  <v type="int" >      101 </v>
  <v type="int" >       40 </v>
  <v type="int" >       20 </v>
  <v type="int" >      137 </v>
  <v type="int" >       55 </v>
  <v type="int" >      108 </v>
  <v type="int" >       33 </v>
  <v type="int" >       48 </v>
  <v type="int" >       60 </v>
  <v type="int" >       58 </v>
  <v type="int" >       45 </v>
  <v type="int" >      131 </v>
  <v type="int" >      127 </v>
  <v type="int" >      112 </v>
  <v type="int" >      116 </v>
  <v type="int" >       56 </v>
  <v type="int" >      133 </v>
  <v type="int" >      134 </v>
  <v type="int" >      120 </v>
  <v type="int" >       51 </v>
  <v type="int" >       52 </v>
  <v type="int" >      126 </v>
  <v type="int" >      129 </v>
  <v type="int" >       73 </v>
  <v type="int" >       62 </v>
  <v type="int" >       70 </v>
  <v type="int" >       50 </v>
  <v type="int" >      121 </v>
  <v type="int" >       67 </v>
  <v type="int" >       65 </v>
  <v type="int" >       66 </v>
  <v type="int" >      135 </v>
  <v type="int" >      128 </v>
  <v type="int" >      132 </v>
  <v type="int" >       71 </v>
  <v type="int" >       72 </v>
  <v type="int" >      130 </v>
  <v type="int" >      125 </v>
  <v type="int" >       61 </v>
  <v type="int" >       74 </v>
  <v type="int" >      136 </v>
  <v type="int" >      139 </v>
  <v type="int" >      140 </v>
  <v type="int" >       64 </v>
  <v type="int" >       76 </v>
  <v type="int" >      138 </v>
  <v type="int" >      145 </v>
  <v type="int" >      142 </v>
  <v type="int" >       63 </v>
  <v type="int" >       75 </v>
  <v type="int" >      150 </v>
  <v type="int" >       69 </v>
  <v type="int" >      155 </v>
  <v type="int" >      153 </v>
  <v type="int" >      154 </v>
  <v type="int" >       87 </v>
  <v type="int" >       68 </v>
  <v type="int" >       77 </v>
  <v type="int" >       90 </v>
  <v type="int" >      151 </v>
  <v type="int" >      152 </v>
  <v type="int" >      141 </v>
  <v type="int" >      146 </v>
  <v type="int" >       83 </v>
  <v type="int" >       84 </v>
  <v type="int" >      144 </v>
  <v type="int" >      148 </v>
  <v type="int" >       82 </v>
  <v type="int" >       91 </v>
  <v type="int" >       79 </v>
  <v type="int" >       89 </v>
  <v type="int" >       78 </v>
  <v type="int" >      143 </v>
  <v type="int" >      147 </v>
  <v type="int" >      167 </v>
  <v type="int" >       85 </v>
  <v type="int" >       86 </v>
  <v type="int" >      157 </v>
  <v type="int" >      162 </v>
  <v type="int" >      149 </v>
  <v type="int" >      171 </v>
  <v type="int" >      172 </v>
  <v type="int" >      156 </v>
  <v type="int" >       80 </v>
  <v type="int" >       92 </v>
  <v type="int" >      170 </v>
  <v type="int" >       88 </v>
  <v type="int" >      163 </v>
  <v type="int" >      159 </v>
  <v type="int" >       81 </v>
  <v type="int" >      161 </v>
  <v type="int" >      158 </v>
  <v type="int" >      165 </v>
  <v type="int" >      166 </v>
  <v type="int" >      160 </v>
  <v type="int" >      164 </v>
  <v type="int" >      168 </v>
  <v type="int" >      169 </v>
 </varray>
 <kpoints>
  <generation param="Gamma">
   <v type="int" name="divisions">       3        3        1 </v>
   <v name="usershift">      0.00000000       0.00000000       0.00000000 </v>
   <v name="genvec1">      0.33333333      -0.00000000       0.00000000 </v>
   <v name="genvec2">      0.00000000       0.33333333       0.00000000 </v>
   <v name="genvec3">      0.00000000       0.00000000       1.00000000 </v>
   <v name="shift">      0.00000000       0.00000000       0.00000000 </v>
  </generation>
  <varray name="kpointlist" >
   <v>       0.00000000       0.00000000       0.00000000 </v>
   <v>       0.33333333      -0.00000000       0.00000000 </v>
   <v>       0.00000000       0.33333333       0.00000000 </v>
   <v>       0.33333333       0.33333333       0.00000000 </v>
   <v>      -0.33333333       0.33333333       0.00000000 </v>
  </varray>
  <varray name="weights" >
   <v>       0.11111111 </v>
   <v>       0.22222222 </v>
   <v>       0.22222222 </v>
   <v>       0.22222222 </v>
   <v>       0.22222222 </v>
  </varray>
 </kpoints>
 <parameters>
  <separator name="general" >
   <i type="string" name="SYSTEM">unknown system</i>
   <i type="logical" name="LCOMPAT"> F  </i>
  </separator>
  <separator name="electronic" >
   <i type="string" name="PREC">a</i>
   <i name="ENMAX">    500.00000000</i>
   <i name="ENAUG">    462.75800000</i>
   <i name="EDIFF">      0.00000001</i>
   <i type="int" name="IALGO">    38</i>
   <i type="int" name="IWAVPR">    10</i>
   <i type="int" name="NBANDS">   924</i>
   <i name="NELECT">   1536.00000000</i>
   <i type="int" name="TURBO">     0</i>
   <i type="int" name="IRESTART">     0</i>
   <i type="int" name="NREBOOT">     0</i>
   <i type="int" name="NMIN">     0</i>
   <i name="EREF">      0.00000000</i>
   <separator name="electronic smearing" >
    <i type="int" name="ISMEAR">     0</i>
    <i name="SIGMA">      0.05000000</i>
    <i name="KSPACING">      0.50000000</i>
    <i type="logical" name="KGAMMA"> T  </i>
   </separator>
   <separator name="electronic projectors" >
    <i type="logical" name="LREAL"> F  </i>
    <v name="ROPT">      0.00000000      0.00000000      0.00000000</v>
    <i type="int" name="LMAXPAW">  -100</i>
    <i type="int" name="LMAXMIX">     2</i>
    <i type="logical" name="NLSPLINE"> F  </i>
   </separator>
   <separator name="electronic startup" >
    <i type="int" name="ISTART">     0</i>
    <i type="int" name="ICHARG">     2</i>
    <i type="int" name="INIWAV">     1</i>
   </separator>
   <separator name="electronic spin" >
    <i type="int" name="ISPIN">     1</i>
    <i type="logical" name="LNONCOLLINEAR"> F  </i>
    <v name="MAGMOM">      1.00000000      1.00000000      1.00000000      1.00000000      1.00000000      1.00000000      1.00000000      1.00000000      1.00000000      1.00000000      1.00000000      1.00000000      1.00000000      1.00000000      1.00000000      1.00000000      1.00000000      1.00000000      1.00000000      1.00000000
      1.00000000      1.00000000      1.00000000      1.00000000      1.00000000      1.00000000      1.00000000      1.00000000      1.00000000      1.00000000      1.00000000      1.00000000      1.00000000      1.00000000      1.00000000      1.00000000      1.00000000      1.00000000      1.00000000      1.00000000
      1.00000000      1.00000000      1.00000000      1.00000000      1.00000000      1.00000000      1.00000000      1.00000000      1.00000000      1.00000000      1.00000000      1.00000000      1.00000000      1.00000000      1.00000000      1.00000000      1.00000000      1.00000000      1.00000000      1.00000000
      1.00000000      1.00000000      1.00000000      1.00000000      1.00000000      1.00000000      1.00000000      1.00000000      1.00000000      1.00000000      1.00000000      1.00000000      1.00000000      1.00000000      1.00000000      1.00000000      1.00000000      1.00000000      1.00000000      1.00000000
      1.00000000      1.00000000      1.00000000      1.00000000      1.00000000      1.00000000      1.00000000      1.00000000      1.00000000      1.00000000      1.00000000      1.00000000      1.00000000      1.00000000      1.00000000      1.00000000      1.00000000      1.00000000      1.00000000      1.00000000
      1.00000000      1.00000000      1.00000000      1.00000000      1.00000000      1.00000000      1.00000000      1.00000000      1.00000000      1.00000000      1.00000000      1.00000000      1.00000000      1.00000000      1.00000000      1.00000000      1.00000000      1.00000000      1.00000000      1.00000000
      1.00000000      1.00000000      1.00000000      1.00000000      1.00000000      1.00000000      1.00000000      1.00000000      1.00000000      1.00000000      1.00000000      1.00000000      1.00000000      1.00000000      1.00000000      1.00000000      1.00000000      1.00000000      1.00000000      1.00000000
      1.00000000      1.00000000      1.00000000      1.00000000      1.00000000      1.00000000      1.00000000      1.00000000      1.00000000      1.00000000      1.00000000      1.00000000      1.00000000      1.00000000      1.00000000      1.00000000      1.00000000      1.00000000      1.00000000      1.00000000
      1.00000000      1.00000000      1.00000000      1.00000000      1.00000000      1.00000000      1.00000000      1.00000000      1.00000000      1.00000000      1.00000000      1.00000000</v>
    <i name="NUPDOWN">     -1.00000000</i>
    <i type="logical" name="LSORBIT"> F  </i>
    <v name="SAXIS">      0.00000000      0.00000000      1.00000000</v>
    <i type="logical" name="LSPIRAL"> F  </i>
    <v name="QSPIRAL">      0.00000000      0.00000000      0.00000000</v>
    <i type="logical" name="LZEROZ"> F  </i>
   </separator>
   <separator name="electronic exchange-correlation" >
    <i type="logical" name="LASPH"> F  </i>
    <i type="logical" name="LMETAGGA"> F  </i>
   </separator>
   <separator name="electronic convergence" >
    <i type="int" name="NELM">   300</i>
    <i type="int" name="NELMDL">    -5</i>
    <i type="int" name="NELMIN">     5</i>
    <i name="ENINI">    500.00000000</i>
    <separator name="electronic convergence detail" >
     <i type="logical" name="LDIAG"> T  </i>
     <i type="logical" name="LSUBROT"> F  </i>
     <i name="WEIMIN">      0.00000000</i>
     <i name="EBREAK">      0.00000000</i>
     <i name="DEPER">      0.30000000</i>
     <i type="int" name="NRMM">     4</i>
     <i name="TIME">      0.40000000</i>
    </separator>
   </separator>
   <separator name="electronic mixer" >
    <i name="AMIX">      0.40000000</i>
    <i name="BMIX">      1.00000000</i>
    <i name="AMIN">      0.10000000</i>
    <i name="AMIX_MAG">      1.60000000</i>
    <i name="BMIX_MAG">      1.00000000</i>
    <separator name="electronic mixer details" >
     <i type="int" name="IMIX">     4</i>
     <i type="logical" name="MIXFIRST"> F  </i>
     <i type="int" name="MAXMIX">   -45</i>
     <i name="WC">    100.00000000</i>
     <i type="int" name="INIMIX">     1</i>
     <i type="int" name="MIXPRE">     1</i>
     <i type="int" name="MREMOVE">     5</i>
    </separator>
   </separator>
   <separator name="electronic dipolcorrection" >
    <i type="logical" name="LDIPOL"> T  </i>
    <i type="logical" name="LMONO"> F  </i>
    <i type="int" name="IDIPOL">     3</i>
    <i name="EPSILON">      1.00000000</i>
    <v name="DIPOL">   -100.00000000   -100.00000000   -100.00000000</v>
    <i name="EFIELD">      0.00000000</i>
   </separator>
  </separator>
  <separator name="grids" >
   <i type="int" name="NGX">   126</i>
   <i type="int" name="NGY">   126</i>
   <i type="int" name="NGZ">   240</i>
   <i type="int" name="NGXF">   252</i>
   <i type="int" name="NGYF">   252</i>
   <i type="int" name="NGZF">   480</i>
   <i type="logical" name="ADDGRID"> T  </i>
  </separator>
  <separator name="ionic" >
   <i type="int" name="NSW">     0</i>
   <i type="int" name="IBRION">    -1</i>
   <i type="int" name="MDALGO">     0</i>
   <i type="int" name="ISIF">     2</i>
   <i name="PSTRESS">      0.00000000</i>
   <i name="EDIFFG">      0.00000010</i>
   <i type="int" name="NFREE">     0</i>
   <i name="POTIM">      0.50000000</i>
   <i name="SMASS">     -3.00000000</i>
   <i name="SCALEE">      1.00000000</i>
  </separator>
  <separator name="ionic md" >
   <i name="TEBEG">      0.00010000</i>
   <i name="TEEND">      0.00010000</i>
   <i type="int" name="NBLOCK">     1</i>
   <i type="int" name="KBLOCK">     1</i>
   <i type="int" name="NPACO">   256</i>
   <i name="APACO">     16.00000000</i>
  </separator>
  <separator name="symmetry" >
   <i type="int" name="ISYM">     2</i>
   <i name="SYMPREC">      0.00001000</i>
  </separator>
  <separator name="dos" >
   <i type="int" name="LORBIT">     0</i>
   <v name="RWIGS">     -1.00000000     -1.00000000     -1.00000000</v>
   <i type="int" name="NEDOS">   301</i>
   <i name="EMIN">     10.00000000</i>
   <i name="EMAX">    -10.00000000</i>
   <i name="EFERMI">      0.00000000</i>
  </separator>
  <separator name="writing" >
   <i type="int" name="NWRITE">     2</i>
   <i type="logical" name="LWAVE"> F  </i>
   <i type="logical" name="LDOWNSAMPLE"> F  </i>
   <i type="logical" name="LCHARG"> F  </i>
   <i type="logical" name="LPARD"> F  </i>
   <i type="logical" name="LVTOT"> F  </i>
   <i type="logical" name="LVHAR"> F  </i>
   <i type="logical" name="LELF"> F  </i>
   <i type="logical" name="LOPTICS"> F  </i>
   <v name="STM">      0.00000000      0.00000000      0.00000000      0.00000000      0.00000000      0.00000000      0.00000000</v>
  </separator>
  <separator name="performance" >
   <i type="int" name="NPAR">     4</i>
   <i type="int" name="NSIM">     4</i>
   <i type="int" name="NBLK">    -1</i>
   <i type="logical" name="LPLANE"> T  </i>
   <i type="logical" name="LSCALAPACK"> F  </i>
   <i type="logical" name="LSCAAWARE"> F  </i>
   <i type="logical" name="LSCALU"> F  </i>
   <i type="logical" name="LASYNC"> F  </i>
   <i type="logical" name="LORBITALREAL"> F  </i>
  </separator>
  <separator name="miscellaneous" >
   <i type="int" name="IDIOT">     3</i>
   <i type="int" name="ISPECIAL">     0</i>
   <i type="logical" name="LMUSIC"> F  </i>
   <v name="POMASS">    114.82000000     74.92200000      1.00000000</v>
   <v name="DARWINR">      0.00000000      0.00000000      0.00000000</v>
   <v name="DARWINV">      1.00000000      1.00000000      1.00000000</v>
   <i type="logical" name="LCORR"> T  </i>
  </separator>
  <i type="logical" name="GGA_COMPAT"> T  </i>
  <i type="logical" name="LBERRY"> F  </i>
  <i type="int" name="ICORELEVEL">     0</i>
  <i type="logical" name="LDAU"> F  </i>
  <i type="int" name="I_CONSTRAINED_M">     0</i>
  <separator name="electronic exchange-correlation" >
   <i type="string" name="GGA">--</i>
   <i type="int" name="VOSKOWN">     0</i>
   <i type="logical" name="LHFCALC"> F  </i>
   <i type="string" name="PRECFOCK"></i>
   <i type="logical" name="LSYMGRAD"> F  </i>
   <i type="logical" name="LHFONE"> F  </i>
   <i type="logical" name="LRHFCALC"> F  </i>
   <i type="logical" name="LTHOMAS"> F  </i>
   <i type="logical" name="LMODELHF"> F  </i>
   <i name="ENCUT4O">     -1.00000000</i>
   <i type="int" name="EXXOEP">     0</i>
   <i type="int" name="FOURORBIT">     0</i>
   <i name="AEXX">      0.00000000</i>
   <i name="HFALPHA">      0.00000000</i>
   <i name="MCALPHA">      0.00000000</i>
   <i name="ALDAX">      1.00000000</i>
   <i name="AGGAX">      1.00000000</i>
   <i name="ALDAC">      1.00000000</i>
   <i name="AGGAC">      1.00000000</i>
   <i type="int" name="NKREDX">     1</i>
   <i type="int" name="NKREDY">     1</i>
   <i type="int" name="NKREDZ">     1</i>
   <i type="logical" name="SHIFTRED"> F  </i>
   <i type="logical" name="ODDONLY"> F  </i>
   <i type="logical" name="EVENONLY"> F  </i>
   <i type="int" name="LMAXFOCK">     0</i>
   <i type="int" name="NMAXFOCKAE">     0</i>
   <i type="logical" name="LFOCKAEDFT"> F  </i>
   <i name="HFSCREEN">      0.00000000</i>
   <i name="HFSCREENC">      0.00000000</i>
   <i type="int" name="NBANDSGWLOW">     0</i>
  </separator>
  <separator name="vdW DFT" >
   <i type="logical" name="LUSE_VDW"> F  </i>
   <i name="Zab_VDW">     -0.84910000</i>
   <i name="PARAM1">      0.12340000</i>
   <i name="PARAM2">      1.00000000</i>
   <i name="PARAM3">      0.00000000</i>
  </separator>
  <separator name="model GW" >
   <i type="int" name="MODEL_GW">     0</i>
   <i name="MODEL_EPS0">     27.43253559</i>
   <i name="MODEL_ALPHA">      1.00000000</i>
  </separator>
  <separator name="linear response parameters" >
   <i type="logical" name="LEPSILON"> F  </i>
   <i type="logical" name="LRPA"> F  </i>
   <i type="logical" name="LNABLA"> F  </i>
   <i type="logical" name="LVEL"> F  </i>
   <i type="int" name="KINTER">     0</i>
   <i name="CSHIFT">      0.10000000</i>
   <i name="OMEGAMAX">     -1.00000000</i>
   <i name="DEG_THRESHOLD">      0.00200000</i>
   <i name="RTIME">     -0.10000000</i>
   <i name="WPLASMAI">      0.00000000</i>
   <v name="DFIELD">      0.00000000      0.00000000      0.00000000</v>
   <v name="WPLASMA">      0.00000000      0.00000000      0.00000000      0.00000000      0.00000000      0.00000000      0.00000000      0.00000000      0.00000000</v>
  </separator>
  <separator name="orbital magnetization" >
   <i type="logical" name="NUCIND"> F  </i>
   <v name="MAGPOS">      0.00000000      0.00000000      0.00000000</v>
   <i type="logical" name="LNICSALL"> T  </i>
   <i type="logical" name="ORBITALMAG"> F  </i>
   <i type="logical" name="LMAGBLOCH"> F  </i>
   <i type="logical" name="LCHIMAG"> F  </i>
   <i type="logical" name="LGAUGE"> T  </i>
   <i type="int" name="MAGATOM">     0</i>
   <v name="MAGDIPOL">      0.00000000      0.00000000      0.00000000</v>
   <v name="AVECCONST">      0.00000000      0.00000000      0.00000000</v>
  </separator>
  <separator name="response functions" >
   <i type="logical" name="LADDER"> F  </i>
   <i type="logical" name="LRPAFORCE"> F  </i>
   <i type="logical" name="LFXC"> F  </i>
   <i type="logical" name="LHARTREE"> T  </i>
   <i type="int" name="IBSE">     0</i>
   <v type="int" name="KPOINT">    -1     0     0     0</v>
   <i type="logical" name="LTCTE"> F  </i>
   <i type="logical" name="LTETE"> F  </i>
   <i type="logical" name="LTRIPLET"> F  </i>
   <i type="logical" name="LFXCEPS"> F  </i>
   <i type="logical" name="LFXHEG"> F  </i>
   <i type="int" name="NATURALO">     2</i>
   <i type="logical" name="L2ORDER"> F  </i>
   <i type="logical" name="LMP2LT"> F  </i>
   <i type="logical" name="LUSEW"> F  </i>
   <i name="ENCUTGW">     -2.00000000</i>
   <i name="ENCUTGWSOFT">     -2.00000000</i>
   <i name="ENCUTLF">     -1.00000000</i>
   <i type="int" name="LMAXMP2">    -1</i>
   <i name="SCISSOR">      0.00000000</i>
   <i type="int" name="NOMEGA">     0</i>
   <i type="int" name="NOMEGAR">     0</i>
   <i type="int" name="NBANDSGW">    -1</i>
   <i type="int" name="NBANDSO">    -1</i>
   <i type="int" name="NBANDSV">    -1</i>
   <i type="int" name="NELM">   300</i>
   <i type="int" name="NELMHF">     1</i>
   <i type="int" name="DIM">     3</i>
   <i type="int" name="ANTIRES">     0</i>
   <i name="OMEGAMAX">    -30.00000000</i>
   <i name="OMEGAMIN">    -30.00000000</i>
   <i name="OMEGATL">   -200.00000000</i>
   <i type="int" name="OMEGAGRID">   140</i>
   <i name="CSHIFT">     -0.10000000</i>
   <i type="logical" name="SELFENERGY"> F  </i>
   <i type="logical" name="LSPECTRAL"> F  </i>
   <i type="logical" name="LSPECTRALGW"> F  </i>
   <i type="logical" name="LSINGLES"> F  </i>
   <i type="logical" name="LFERMIGW"> F  </i>
   <i type="logical" name="ODDONLYGW"> F  </i>
   <i type="logical" name="EVENONLYGW"> F  </i>
   <i type="int" name="NKREDLFX">     1</i>
   <i type="int" name="NKREDLFY">     1</i>
   <i type="int" name="NKREDLFZ">     1</i>
   <i type="int" name="MAXMEM">  2800</i>
   <i type="int" name="TELESCOPE">     0</i>
   <i type="int" name="TAUPAR">     1</i>
   <i type="int" name="OMEGAPAR">    -1</i>
   <i name="LAMBDA">      1.00000000</i>
  </separator>
  <separator name="External order field" >
   <i name="OFIELD_KAPPA">      0.00000000</i>
   <v name="OFIELD_K">      0.00000000      0.00000000      0.00000000</v>
   <i name="OFIELD_Q6_NEAR">      0.00000000</i>
   <i name="OFIELD_Q6_FAR">      0.00000000</i>
   <i name="OFIELD_A">      0.00000000</i>
  </separator>
 </parameters>
 <atominfo>
  <atoms>     172 </atoms>
  <types>       3 </types>
  <array name="atoms" >
   <dimension dim="1">ion</dimension>
   <field type="string">element</field>
   <field type="int">atomtype</field>
   <set>
    <rc><c>In</c><c>   1</c></rc>
    <rc><c>In</c><c>   1</c></rc>
    <rc><c>In</c><c>   1</c></rc>
    <rc><c>In</c><c>   1</c></rc>
    <rc><c>In</c><c>   1</c></rc>
    <rc><c>In</c><c>   1</c></rc>
    <rc><c>In</c><c>   1</c></rc>
    <rc><c>In</c><c>   1</c></rc>
    <rc><c>In</c><c>   1</c></rc>
    <rc><c>In</c><c>   1</c></rc>
    <rc><c>In</c><c>   1</c></rc>
    <rc><c>In</c><c>   1</c></rc>
    <rc><c>In</c><c>   1</c></rc>
    <rc><c>In</c><c>   1</c></rc>
    <rc><c>In</c><c>   1</c></rc>
    <rc><c>In</c><c>   1</c></rc>
    <rc><c>In</c><c>   1</c></rc>
    <rc><c>In</c><c>   1</c></rc>
    <rc><c>In</c><c>   1</c></rc>
    <rc><c>In</c><c>   1</c></rc>
    <rc><c>In</c><c>   1</c></rc>
    <rc><c>In</c><c>   1</c></rc>
    <rc><c>In</c><c>   1</c></rc>
    <rc><c>In</c><c>   1</c></rc>
    <rc><c>In</c><c>   1</c></rc>
    <rc><c>In</c><c>   1</c></rc>
    <rc><c>In</c><c>   1</c></rc>
    <rc><c>In</c><c>   1</c></rc>
    <rc><c>In</c><c>   1</c></rc>
    <rc><c>In</c><c>   1</c></rc>
    <rc><c>In</c><c>   1</c></rc>
    <rc><c>In</c><c>   1</c></rc>
    <rc><c>In</c><c>   1</c></rc>
    <rc><c>In</c><c>   1</c></rc>
    <rc><c>In</c><c>   1</c></rc>
    <rc><c>In</c><c>   1</c></rc>
    <rc><c>In</c><c>   1</c></rc>
    <rc><c>In</c><c>   1</c></rc>
    <rc><c>In</c><c>   1</c></rc>
    <rc><c>In</c><c>   1</c></rc>
    <rc><c>In</c><c>   1</c></rc>
    <rc><c>In</c><c>   1</c></rc>
    <rc><c>In</c><c>   1</c></rc>
    <rc><c>In</c><c>   1</c></rc>
    <rc><c>In</c><c>   1</c></rc>
    <rc><c>In</c><c>   1</c></rc>
    <rc><c>In</c><c>   1</c></rc>
    <rc><c>In</c><c>   1</c></rc>
    <rc><c>In</c><c>   1</c></rc>
    <rc><c>In</c><c>   1</c></rc>
    <rc><c>In</c><c>   1</c></rc>
    <rc><c>In</c><c>   1</c></rc>
    <rc><c>In</c><c>   1</c></rc>
    <rc><c>In</c><c>   1</c></rc>
    <rc><c>In</c><c>   1</c></rc>
    <rc><c>In</c><c>   1</c></rc>
    <rc><c>In</c><c>   1</c></rc>
    <rc><c>In</c><c>   1</c></rc>
    <rc><c>In</c><c>   1</c></rc>
    <rc><c>In</c><c>   1</c></rc>
    <rc><c>In</c><c>   1</c></rc>
    <rc><c>In</c><c>   1</c></rc>
    <rc><c>In</c><c>   1</c></rc>
    <rc><c>In</c><c>   1</c></rc>
    <rc><c>In</c><c>   1</c></rc>
    <rc><c>In</c><c>   1</c></rc>
    <rc><c>In</c><c>   1</c></rc>
    <rc><c>In</c><c>   1</c></rc>
    <rc><c>In</c><c>   1</c></rc>
    <rc><c>In</c><c>   1</c></rc>
    <rc><c>In</c><c>   1</c></rc>
    <rc><c>In</c><c>   1</c></rc>
    <rc><c>In</c><c>   1</c></rc>
    <rc><c>In</c><c>   1</c></rc>
    <rc><c>In</c><c>   1</c></rc>
    <rc><c>In</c><c>   1</c></rc>
    <rc><c>In</c><c>   1</c></rc>
    <rc><c>In</c><c>   1</c></rc>
    <rc><c>In</c><c>   1</c></rc>
    <rc><c>In</c><c>   1</c></rc>
    <rc><c>In</c><c>   1</c></rc>
    <rc><c>In</c><c>   1</c></rc>
    <rc><c>In</c><c>   1</c></rc>
    <rc><c>In</c><c>   1</c></rc>
    <rc><c>In</c><c>   1</c></rc>
    <rc><c>In</c><c>   1</c></rc>
    <rc><c>In</c><c>   1</c></rc>
    <rc><c>In</c><c>   1</c></rc>
    <rc><c>In</c><c>   1</c></rc>
    <rc><c>In</c><c>   1</c></rc>
    <rc><c>In</c><c>   1</c></rc>
    <rc><c>In</c><c>   1</c></rc>
    <rc><c>As</c><c>   2</c></rc>
    <rc><c>As</c><c>   2</c></rc>
    <rc><c>As</c><c>   2</c></rc>
    <rc><c>As</c><c>   2</c></rc>
    <rc><c>As</c><c>   2</c></rc>
    <rc><c>As</c><c>   2</c></rc>
    <rc><c>As</c><c>   2</c></rc>
    <rc><c>As</c><c>   2</c></rc>
    <rc><c>As</c><c>   2</c></rc>
    <rc><c>As</c><c>   2</c></rc>
    <rc><c>As</c><c>   2</c></rc>
    <rc><c>As</c><c>   2</c></rc>
    <rc><c>As</c><c>   2</c></rc>
    <rc><c>As</c><c>   2</c></rc>
    <rc><c>As</c><c>   2</c></rc>
    <rc><c>As</c><c>   2</c></rc>
    <rc><c>As</c><c>   2</c></rc>
    <rc><c>As</c><c>   2</c></rc>
    <rc><c>As</c><c>   2</c></rc>
    <rc><c>As</c><c>   2</c></rc>
    <rc><c>As</c><c>   2</c></rc>
    <rc><c>As</c><c>   2</c></rc>
    <rc><c>As</c><c>   2</c></rc>
    <rc><c>As</c><c>   2</c></rc>
    <rc><c>As</c><c>   2</c></rc>
    <rc><c>As</c><c>   2</c></rc>
    <rc><c>As</c><c>   2</c></rc>
    <rc><c>As</c><c>   2</c></rc>
    <rc><c>As</c><c>   2</c></rc>
    <rc><c>As</c><c>   2</c></rc>
    <rc><c>As</c><c>   2</c></rc>
    <rc><c>As</c><c>   2</c></rc>
    <rc><c>As</c><c>   2</c></rc>
    <rc><c>As</c><c>   2</c></rc>
    <rc><c>As</c><c>   2</c></rc>
    <rc><c>As</c><c>   2</c></rc>
    <rc><c>As</c><c>   2</c></rc>
    <rc><c>As</c><c>   2</c></rc>
    <rc><c>As</c><c>   2</c></rc>
    <rc><c>As</c><c>   2</c></rc>
    <rc><c>As</c><c>   2</c></rc>
    <rc><c>As</c><c>   2</c></rc>
    <rc><c>As</c><c>   2</c></rc>
    <rc><c>As</c><c>   2</c></rc>
    <rc><c>As</c><c>   2</c></rc>
    <rc><c>As</c><c>   2</c></rc>
    <rc><c>As</c><c>   2</c></rc>
    <rc><c>As</c><c>   2</c></rc>
    <rc><c>As</c><c>   2</c></rc>
    <rc><c>As</c><c>   2</c></rc>
    <rc><c>As</c><c>   2</c></rc>
    <rc><c>As</c><c>   2</c></rc>
    <rc><c>As</c><c>   2</c></rc>
    <rc><c>As</c><c>   2</c></rc>
    <rc><c>As</c><c>   2</c></rc>
    <rc><c>As</c><c>   2</c></rc>
    <rc><c>As</c><c>   2</c></rc>
    <rc><c>As</c><c>   2</c></rc>
    <rc><c>As</c><c>   2</c></rc>
    <rc><c>As</c><c>   2</c></rc>
    <rc><c>As</c><c>   2</c></rc>
    <rc><c>As</c><c>   2</c></rc>
    <rc><c>As</c><c>   2</c></rc>
    <rc><c>As</c><c>   2</c></rc>
    <rc><c>H </c><c>   3</c></rc>
    <rc><c>H </c><c>   3</c></rc>
    <rc><c>H </c><c>   3</c></rc>
    <rc><c>H </c><c>   3</c></rc>
    <rc><c>H </c><c>   3</c></rc>
    <rc><c>H </c><c>   3</c></rc>
    <rc><c>H </c><c>   3</c></rc>
    <rc><c>H </c><c>   3</c></rc>
    <rc><c>H </c><c>   3</c></rc>
    <rc><c>H </c><c>   3</c></rc>
    <rc><c>H </c><c>   3</c></rc>
    <rc><c>H </c><c>   3</c></rc>
    <rc><c>H </c><c>   3</c></rc>
    <rc><c>H </c><c>   3</c></rc>
    <rc><c>H </c><c>   3</c></rc>
    <rc><c>H </c><c>   3</c></rc>
   </set>
  </array>
  <array name="atomtypes" >
   <dimension dim="1">type</dimension>
   <field type="int">atomspertype</field>
   <field type="string">element</field>
   <field>mass</field>
   <field>valence</field>
   <field type="string">pseudopotential</field>
   <set>
    <rc><c>  92</c><c>In</c><c>    114.82000000</c><c>     13.00000000</c><c> PAW In_d 11Feb1998                     </c></rc>
    <rc><c>  64</c><c>As</c><c>     74.92200000</c><c>      5.00000000</c><c> PAW As 03Mar1998                       </c></rc>
    <rc><c>  16</c><c>H </c><c>      1.00000000</c><c>      1.25000000</c><c> PAW H1.25 14Feb2000                    </c></rc>
   </set>
  </array>
 </atominfo>
 <structure name="initialpos" >
  <crystal>
   <varray name="basis" >
    <v>      17.03433609       0.00000000       0.00000000 </v>
    <v>      -8.51716805      14.75216779       0.00000000 </v>
    <v>       0.00000000       0.00000000      31.29407310 </v>
   </varray>
   <i name="volume">   7863.99353597 </i>
   <varray name="rec_basis" >
    <v>       0.05870496       0.03389332       0.00000000 </v>
    <v>       0.00000000       0.06778665       0.00000000 </v>
    <v>       0.00000000       0.00000000       0.03195493 </v>
   </varray>
  </crystal>
  <varray name="positions" >
   <v>       0.04889542       0.39944771       0.99568253 </v>
   <v>       0.04889542       0.89944771       0.99568253 </v>
   <v>       0.54889542       0.39944771       0.99568253 </v>
   <v>       0.54889542       0.89944771       0.99568253 </v>
   <v>       0.35055229       0.39944771       0.99568253 </v>
   <v>       0.35055229       0.89944771       0.99568253 </v>
   <v>       0.85055229       0.39944771       0.99568253 </v>
   <v>       0.85055229       0.89944771       0.99568253 </v>
   <v>       0.35055229       0.20110457       0.99568253 </v>
   <v>       0.35055229       0.70110457       0.99568253 </v>
   <v>       0.85055229       0.20110457       0.99568253 </v>
   <v>       0.85055229       0.70110457       0.99568253 </v>
   <v>       0.02661586       0.05323172       0.99490245 </v>
   <v>       0.02661586       0.55323172       0.99490245 </v>
   <v>       0.52661586       0.05323172       0.99490245 </v>
   <v>       0.52661586       0.55323172       0.99490245 </v>
   <v>       0.19676828       0.22338414       0.99490245 </v>
   <v>       0.19676828       0.72338414       0.99490245 </v>
   <v>       0.69676828       0.22338414       0.99490245 </v>
   <v>       0.69676828       0.72338414       0.99490245 </v>
   <v>       0.25000000       0.00000000       0.99493075 </v>
   <v>       0.25000000       0.50000000       0.99493075 </v>
   <v>       0.75000000       0.00000000       0.99493075 </v>
   <v>       0.75000000       0.50000000       0.99493075 </v>
   <v>       0.02661586       0.22338414       0.99490245 </v>
   <v>       0.02661586       0.72338414       0.99490245 </v>
   <v>       0.52661586       0.22338414       0.99490245 </v>
   <v>       0.52661586       0.72338414       0.99490245 </v>
   <v>       0.16687125       0.33374251       0.11114905 </v>
   <v>       0.16687125       0.83374251       0.11114905 </v>
   <v>       0.66687125       0.33374251       0.11114905 </v>
   <v>       0.66687125       0.83374251       0.11114905 </v>
   <v>       0.41625749       0.08312875       0.11114905 </v>
   <v>       0.41625749       0.58312875       0.11114905 </v>
   <v>       0.91625749       0.08312875       0.11114905 </v>
   <v>       0.91625749       0.58312875       0.11114905 </v>
   <v>       0.41666666       0.33333334       0.10951073 </v>
   <v>       0.41666666       0.83333334       0.10951073 </v>
   <v>       0.91666666       0.33333334       0.10951073 </v>
   <v>       0.91666666       0.83333334       0.10951073 </v>
   <v>       0.16687125       0.08312875       0.11114905 </v>
   <v>       0.16687125       0.58312875       0.11114905 </v>
   <v>       0.66687125       0.08312875       0.11114905 </v>
   <v>       0.66687125       0.58312875       0.11114905 </v>
   <v>       0.33333334       0.16666667       0.22222222 </v>
   <v>       0.33333334       0.66666667       0.22222222 </v>
   <v>       0.83333334       0.16666667       0.22222222 </v>
   <v>       0.83333334       0.66666667       0.22222222 </v>
   <v>       0.08333331       0.41666666       0.22222222 </v>
   <v>       0.08333331       0.91666666       0.22222222 </v>
   <v>       0.58333331       0.41666666       0.22222222 </v>
   <v>       0.58333331       0.91666666       0.22222222 </v>
   <v>       0.08333331       0.16666669       0.22222222 </v>
   <v>       0.08333331       0.66666669       0.22222222 </v>
   <v>       0.58333331       0.16666669       0.22222222 </v>
   <v>       0.58333331       0.66666669       0.22222222 </v>
   <v>       0.33333334       0.41666666       0.22222222 </v>
   <v>       0.33333334       0.91666666       0.22222222 </v>
   <v>       0.83333334       0.41666666       0.22222222 </v>
   <v>       0.83333334       0.91666666       0.22222222 </v>
   <v>       0.00000000       0.00000000       0.33333334 </v>
   <v>       0.00000000       0.50000000       0.33333334 </v>
   <v>       0.50000000       0.00000000       0.33333334 </v>
   <v>       0.50000000       0.50000000       0.33333334 </v>
   <v>       0.25000000       0.25000000       0.33333334 </v>
   <v>       0.25000000       0.75000000       0.33333334 </v>
   <v>       0.75000000       0.25000000       0.33333334 </v>
   <v>       0.75000000       0.75000000       0.33333334 </v>
   <v>       0.25000000       0.00000000       0.33333334 </v>
   <v>       0.25000000       0.50000000       0.33333334 </v>
   <v>       0.75000000       0.00000000       0.33333334 </v>
   <v>       0.75000000       0.50000000       0.33333334 </v>
   <v>       0.00000000       0.25000000       0.33333334 </v>
   <v>       0.00000000       0.75000000       0.33333334 </v>
   <v>       0.50000000       0.25000000       0.33333334 </v>
   <v>       0.50000000       0.75000000       0.33333334 </v>
   <v>       0.16666667       0.33333334       0.44444445 </v>
   <v>       0.16666667       0.83333334       0.44444445 </v>
   <v>       0.66666667       0.33333334       0.44444445 </v>
   <v>       0.66666667       0.83333334       0.44444445 </v>
   <v>       0.41666666       0.08333334       0.44444445 </v>
   <v>       0.41666666       0.58333334       0.44444445 </v>
   <v>       0.91666666       0.08333334       0.44444445 </v>
   <v>       0.91666666       0.58333334       0.44444445 </v>
   <v>       0.41666666       0.33333334       0.44444445 </v>
   <v>       0.41666666       0.83333334       0.44444445 </v>
   <v>       0.91666666       0.33333334       0.44444445 </v>
   <v>       0.91666666       0.83333334       0.44444445 </v>
   <v>       0.16666667       0.08333334       0.44444445 </v>
   <v>       0.16666667       0.58333334       0.44444445 </v>
   <v>       0.66666667       0.08333334       0.44444445 </v>
   <v>       0.66666667       0.58333334       0.44444445 </v>
   <v>       0.00060404       0.00120809       0.07927097 </v>
   <v>       0.00060404       0.50120809       0.07927097 </v>
   <v>       0.50060404       0.00120809       0.07927097 </v>
   <v>       0.50060404       0.50120809       0.07927097 </v>
   <v>       0.00060404       0.24939596       0.07927100 </v>
   <v>       0.00060404       0.74939596       0.07927100 </v>
   <v>       0.50060404       0.24939596       0.07927100 </v>
   <v>       0.50060404       0.74939596       0.07927100 </v>
   <v>       0.25083021       0.00000000       0.08139676 </v>
   <v>       0.25000000       0.50000000       0.08094485 </v>
   <v>       0.75000000       0.00000000       0.08094485 </v>
   <v>       0.75000000       0.50000000       0.08094485 </v>
   <v>       0.24879191       0.24939596       0.07927100 </v>
   <v>       0.24879191       0.74939596       0.07927100 </v>
   <v>       0.74879191       0.24939596       0.07927100 </v>
   <v>       0.74879191       0.74939596       0.07927100 </v>
   <v>       0.16660331       0.33320661       0.19452973 </v>
   <v>       0.16660331       0.83320661       0.19452973 </v>
   <v>       0.66660331       0.33320661       0.19452973 </v>
   <v>       0.66660331       0.83320661       0.19452973 </v>
   <v>       0.16660331       0.08339670       0.19452973 </v>
   <v>       0.16660331       0.58339670       0.19452973 </v>
   <v>       0.66660331       0.08339670       0.19452973 </v>
   <v>       0.66660331       0.58339670       0.19452973 </v>
   <v>       0.41666666       0.33333334       0.19342860 </v>
   <v>       0.41666666       0.83333334       0.19342860 </v>
   <v>       0.91666666       0.33333334       0.19342860 </v>
   <v>       0.91666666       0.83333334       0.19342860 </v>
   <v>       0.41679339       0.08339670       0.19452973 </v>
   <v>       0.41679339       0.58339670       0.19452973 </v>
   <v>       0.91679339       0.08339670       0.19452973 </v>
   <v>       0.91679339       0.58339670       0.19452973 </v>
   <v>       0.33333334       0.16666667       0.30555555 </v>
   <v>       0.33333334       0.66666667       0.30555555 </v>
   <v>       0.83333334       0.16666667       0.30555555 </v>
   <v>       0.83333334       0.66666667       0.30555555 </v>
   <v>       0.33333334       0.41666666       0.30555555 </v>
   <v>       0.33333334       0.91666666       0.30555555 </v>
   <v>       0.83333334       0.41666666       0.30555555 </v>
   <v>       0.83333334       0.91666666       0.30555555 </v>
   <v>       0.08333331       0.16666669       0.30555555 </v>
   <v>       0.08333331       0.66666669       0.30555555 </v>
   <v>       0.58333331       0.16666669       0.30555555 </v>
   <v>       0.58333331       0.66666669       0.30555555 </v>
   <v>       0.08333331       0.41666666       0.30555555 </v>
   <v>       0.08333331       0.91666666       0.30555555 </v>
   <v>       0.58333331       0.41666666       0.30555555 </v>
   <v>       0.58333331       0.91666666       0.30555555 </v>
   <v>       0.00000000       0.00000000       0.41666666 </v>
   <v>       0.00000000       0.50000000       0.41666666 </v>
   <v>       0.50000000       0.00000000       0.41666666 </v>
   <v>       0.50000000       0.50000000       0.41666666 </v>
   <v>       0.00000000       0.25000000       0.41666666 </v>
   <v>       0.00000000       0.75000000       0.41666666 </v>
   <v>       0.50000000       0.25000000       0.41666666 </v>
   <v>       0.50000000       0.75000000       0.41666666 </v>
   <v>       0.25000000       0.00000000       0.41666666 </v>
   <v>       0.25000000       0.50000000       0.41666666 </v>
   <v>       0.75000000       0.00000000       0.41666666 </v>
   <v>       0.75000000       0.50000000       0.41666666 </v>
   <v>       0.25000000       0.25000000       0.41666666 </v>
   <v>       0.25000000       0.75000000       0.41666666 </v>
   <v>       0.75000000       0.25000000       0.41666666 </v>
   <v>       0.75000000       0.75000000       0.41666666 </v>
   <v>       0.16666667       0.33333334       0.50007080 </v>
   <v>       0.16666667       0.83333334       0.50007080 </v>
   <v>       0.66666667       0.33333334       0.50007080 </v>
   <v>       0.66666667       0.83333334       0.50007080 </v>
   <v>       0.16666667       0.08333334       0.50007080 </v>
   <v>       0.16666667       0.58333334       0.50007080 </v>
   <v>       0.66666667       0.08333334       0.50007080 </v>
   <v>       0.66666667       0.58333334       0.50007080 </v>
   <v>       0.41666666       0.33333334       0.50007080 </v>
   <v>       0.41666666       0.83333334       0.50007080 </v>
   <v>       0.91666666       0.33333334       0.50007080 </v>
   <v>       0.91666666       0.83333334       0.50007080 </v>
   <v>       0.41666666       0.08333334       0.50007080 </v>
   <v>       0.41666666       0.58333334       0.50007080 </v>
   <v>       0.91666666       0.08333334       0.50007080 </v>
   <v>       0.91666666       0.58333334       0.50007080 </v>
  </varray>
 </structure>
 <calculation>
  <scstep>
   <time name="dav">  475.93  476.14</time>
   <time name="total">  476.65  476.88</time>
   <dipole>
    <v name="dipole">      0.00000000       0.00000000      -0.00133672 </v>
    <i name="Tr[quadrupol]"> -74894.86313831 </i>
    <i name="Echarged">      0.00000000 </i>
    <i name="Edipol_quadrupol">      0.00000000 </i>
    <i name="Eion">      0.00000000 </i>
   </dipole>
   <energy>
    <i name="alphaZ">   1768.57130123 </i>
    <i name="ewald"> 318716.33691579 </i>
    <i name="hartreedc">-467293.30741970 </i>
    <i name="XCdc">   3216.68688551 </i>
    <i name="pawpsdc"> 116446.47017590 </i>
    <i name="pawaedc">-114544.52040592 </i>
    <i name="eentropy">     -0.04186317 </i>
    <i name="bandstr">    625.81326366 </i>
    <i name="atom"> 156698.92270065 </i>
    <i name="e_fr_energy">  15634.93155395 </i>
    <i name="e_wo_entrp">  15634.97341712 </i>
    <i name="e_0_energy">  15634.95248554 </i>
   </energy>
  </scstep>
  <scstep>
   <time name="dav">  515.06  515.19</time>
   <time name="total">  515.07  515.20</time>
   <dipole>
    <v name="dipole">      0.00000000       0.00000000      -0.00133672 </v>
    <i name="Tr[quadrupol]"> -74894.86313831 </i>
    <i name="Echarged">      0.00000000 </i>
    <i name="Edipol_quadrupol">      0.00000000 </i>
    <i name="Eion">      0.00000000 </i>
   </dipole>
   <energy>
    <i name="e_fr_energy">   1764.65784884 </i>
    <i name="e_wo_entrp">   1764.70022105 </i>
    <i name="e_0_energy">   1764.67903495 </i>
   </energy>
  </scstep>
  <scstep>
   <time name="dav">  521.77  521.88</time>
   <time name="total">  521.79  521.90</time>
   <dipole>
    <v name="dipole">      0.00000000       0.00000000      -0.00133672 </v>
    <i name="Tr[quadrupol]"> -74894.86313831 </i>
    <i name="Echarged">      0.00000000 </i>
    <i name="Edipol_quadrupol">      0.00000000 </i>
    <i name="Eion">      0.00000000 </i>
   </dipole>
   <energy>
    <i name="e_fr_energy">   -525.96890255 </i>
    <i name="e_wo_entrp">   -525.95895870 </i>
    <i name="e_0_energy">   -525.96393062 </i>
   </energy>
  </scstep>
  <scstep>
   <time name="dav">  535.31  536.01</time>
   <time name="total">  535.32  536.03</time>
   <dipole>
    <v name="dipole">      0.00000000       0.00000000      -0.00133672 </v>
    <i name="Tr[quadrupol]"> -74894.86313831 </i>
    <i name="Echarged">      0.00000000 </i>
    <i name="Edipol_quadrupol">      0.00000000 </i>
    <i name="Eion">      0.00000000 </i>
   </dipole>
   <energy>
    <i name="e_fr_energy">   -721.43396117 </i>
    <i name="e_wo_entrp">   -721.41654816 </i>
    <i name="e_0_energy">   -721.42525467 </i>
   </energy>
  </scstep>
  <scstep>
   <time name="dav">  560.69  561.07</time>
   <time name="total">  566.87  567.26</time>
   <dipole>
    <v name="dipole">      0.00000000       0.00000000      -0.00133672 </v>
    <i name="Tr[quadrupol]"> -74894.86313831 </i>
    <i name="Echarged">      0.00000000 </i>
    <i name="Edipol_quadrupol">      0.00000000 </i>
    <i name="Eion">      0.00000000 </i>
   </dipole>
   <energy>
    <i name="e_fr_energy">   -730.86555428 </i>
    <i name="e_wo_entrp">   -730.84782384 </i>
    <i name="e_0_energy">   -730.85668906 </i>
   </energy>
  </scstep>
  <scstep>
   <time name="dav">  586.76  587.11</time>
   <time name="total">  593.82  594.23</time>
   <dipole>
    <v name="dipole">      0.00000000       0.00000000       1.73829850 </v>
    <i name="Tr[quadrupol]"> -74911.11216262 </i>
    <i name="Echarged">      0.00000000 </i>
    <i name="Edipol_quadrupol">      0.00000000 </i>
    <i name="Eion">      0.00000000 </i>
   </dipole>
   <energy>
    <i name="e_fr_energy">   -706.92460906 </i>
    <i name="e_wo_entrp">   -706.91502779 </i>
    <i name="e_0_energy">   -706.91981843 </i>
   </energy>
  </scstep>
  <scstep>
   <time name="dav">  619.22  619.48</time>
   <time name="total">  625.80  626.07</time>
   <dipole>
    <v name="dipole">      0.00000000       0.00000000       0.19145099 </v>
    <i name="Tr[quadrupol]"> -74914.47158657 </i>
    <i name="Echarged">      0.00000000 </i>
    <i name="Edipol_quadrupol">      0.00000000 </i>
    <i name="Eion">      0.00000000 </i>
   </dipole>
   <energy>
    <i name="e_fr_energy">   -703.75263738 </i>
    <i name="e_wo_entrp">   -703.74107709 </i>
    <i name="e_0_energy">   -703.74685723 </i>
   </energy>
  </scstep>
  <scstep>
   <time name="dav">  581.05  581.65</time>
   <time name="total">  587.62  588.22</time>
   <dipole>
    <v name="dipole">      0.00000000       0.00000000       1.35004553 </v>
    <i name="Tr[quadrupol]"> -74919.55053562 </i>
    <i name="Echarged">      0.00000000 </i>
    <i name="Edipol_quadrupol">      0.00000000 </i>
    <i name="Eion">      0.00000000 </i>
   </dipole>
   <energy>
    <i name="e_fr_energy">   -703.81927846 </i>
    <i name="e_wo_entrp">   -703.81113732 </i>
    <i name="e_0_energy">   -703.81520789 </i>
   </energy>
  </scstep>
  <scstep>
   <time name="dav">  590.82  590.99</time>
   <time name="total">  597.75  597.93</time>
   <dipole>
    <v name="dipole">      0.00000000       0.00000000       1.12684970 </v>
    <i name="Tr[quadrupol]"> -74925.20139217 </i>
    <i name="Echarged">      0.00000000 </i>
    <i name="Edipol_quadrupol">      0.00000000 </i>
    <i name="Eion">      0.00000000 </i>
   </dipole>
   <energy>
    <i name="e_fr_energy">   -703.67134866 </i>
    <i name="e_wo_entrp">   -703.66391714 </i>
    <i name="e_0_energy">   -703.66763290 </i>
   </energy>
  </scstep>
  <scstep>
   <time name="dav">  621.13  621.27</time>
   <time name="total">  629.55  629.72</time>
   <dipole>
    <v name="dipole">      0.00000000       0.00000000       1.14303259 </v>
    <i name="Tr[quadrupol]"> -74929.30380054 </i>
    <i name="Echarged">      0.00000000 </i>
    <i name="Edipol_quadrupol">      0.00000000 </i>
    <i name="Eion">      0.00000000 </i>
   </dipole>
   <energy>
    <i name="e_fr_energy">   -703.67294652 </i>
    <i name="e_wo_entrp">   -703.66558540 </i>
    <i name="e_0_energy">   -703.66926596 </i>
   </energy>
  </scstep>
  <scstep>
   <time name="dav">  614.65  616.43</time>
   <time name="total">  621.83  623.61</time>
   <dipole>
    <v name="dipole">      0.00000000       0.00000000       1.21289010 </v>
    <i name="Tr[quadrupol]"> -74930.73611365 </i>
    <i name="Echarged">      0.00000000 </i>
    <i name="Edipol_quadrupol">      0.00000000 </i>
    <i name="Eion">      0.00000000 </i>
   </dipole>
   <energy>
    <i name="e_fr_energy">   -703.68092044 </i>
    <i name="e_wo_entrp">   -703.67353750 </i>
    <i name="e_0_energy">   -703.67722897 </i>
   </energy>
  </scstep>
  <scstep>
   <time name="dav">  624.07  624.36</time>
   <time name="total">  631.78  632.07</time>
   <dipole>
    <v name="dipole">      0.00000000       0.00000000       1.23899560 </v>
    <i name="Tr[quadrupol]"> -74932.86004488 </i>
    <i name="Echarged">      0.00000000 </i>
    <i name="Edipol_quadrupol">      0.00000000 </i>
    <i name="Eion">      0.00000000 </i>
   </dipole>
   <energy>
    <i name="e_fr_energy">   -703.68517581 </i>
    <i name="e_wo_entrp">   -703.67774828 </i>
    <i name="e_0_energy">   -703.68146204 </i>
   </energy>
  </scstep>
  <scstep>
   <time name="dav">  594.41  594.53</time>
   <time name="total">  601.16  601.28</time>
   <dipole>
    <v name="dipole">      0.00000000       0.00000000       1.24459232 </v>
    <i name="Tr[quadrupol]"> -74935.38211529 </i>
    <i name="Echarged">      0.00000000 </i>
    <i name="Edipol_quadrupol">      0.00000000 </i>
    <i name="Eion">      0.00000000 </i>
   </dipole>
   <energy>
    <i name="e_fr_energy">   -703.69031264 </i>
    <i name="e_wo_entrp">   -703.68286095 </i>
    <i name="e_0_energy">   -703.68658679 </i>
   </energy>
  </scstep>
  <scstep>
   <time name="dav">  589.32  589.66</time>
   <time name="total">  596.16  596.50</time>
   <dipole>
    <v name="dipole">      0.00000000       0.00000000       1.26658485 </v>
    <i name="Tr[quadrupol]"> -74937.04949874 </i>
    <i name="Echarged">      0.00000000 </i>
    <i name="Edipol_quadrupol">      0.00000000 </i>
    <i name="Eion">      0.00000000 </i>
   </dipole>
   <energy>
    <i name="e_fr_energy">   -703.69537367 </i>
    <i name="e_wo_entrp">   -703.68792812 </i>
    <i name="e_0_energy">   -703.69165090 </i>
   </energy>
  </scstep>
  <scstep>
   <time name="dav">  573.79  576.32</time>
   <time name="total">  580.47  583.06</time>
   <dipole>
    <v name="dipole">      0.00000000       0.00000000       1.28904976 </v>
    <i name="Tr[quadrupol]"> -74939.03916812 </i>
    <i name="Echarged">      0.00000000 </i>
    <i name="Edipol_quadrupol">      0.00000000 </i>
    <i name="Eion">      0.00000000 </i>
   </dipole>
   <energy>
    <i name="e_fr_energy">   -703.70128247 </i>
    <i name="e_wo_entrp">   -703.69383140 </i>
    <i name="e_0_energy">   -703.69755694 </i>
   </energy>
  </scstep>
  <scstep>
   <time name="dav">  572.99  576.22</time>
   <time name="total">  579.60  582.83</time>
   <dipole>
    <v name="dipole">      0.00000000       0.00000000       1.30363359 </v>
    <i name="Tr[quadrupol]"> -74939.84085603 </i>
    <i name="Echarged">      0.00000000 </i>
    <i name="Edipol_quadrupol">      0.00000000 </i>
    <i name="Eion">      0.00000000 </i>
   </dipole>
   <energy>
    <i name="e_fr_energy">   -703.70340573 </i>
    <i name="e_wo_entrp">   -703.69595511 </i>
    <i name="e_0_energy">   -703.69968042 </i>
   </energy>
  </scstep>
  <scstep>
   <time name="dav">  537.60  541.56</time>
   <time name="total">  544.15  548.16</time>
   <dipole>
    <v name="dipole">      0.00000000       0.00000000       1.31942741 </v>
    <i name="Tr[quadrupol]"> -74939.92560613 </i>
    <i name="Echarged">      0.00000000 </i>
    <i name="Edipol_quadrupol">      0.00000000 </i>
    <i name="Eion">      0.00000000 </i>
   </dipole>
   <energy>
    <i name="e_fr_energy">   -703.70443765 </i>
    <i name="e_wo_entrp">   -703.69698725 </i>
    <i name="e_0_energy">   -703.70071245 </i>
   </energy>
  </scstep>
  <scstep>
   <time name="dav">  584.21  585.63</time>
   <time name="total">  592.84  594.33</time>
   <dipole>
    <v name="dipole">      0.00000000       0.00000000       1.33183451 </v>
    <i name="Tr[quadrupol]"> -74940.49329891 </i>
    <i name="Echarged">      0.00000000 </i>
    <i name="Edipol_quadrupol">      0.00000000 </i>
    <i name="Eion">      0.00000000 </i>
   </dipole>
   <energy>
    <i name="e_fr_energy">   -703.70499150 </i>
    <i name="e_wo_entrp">   -703.69754069 </i>
    <i name="e_0_energy">   -703.70126609 </i>
   </energy>
  </scstep>
  <scstep>
   <time name="dav">  641.76  646.22</time>
   <time name="total">  648.41  652.86</time>
   <dipole>
    <v name="dipole">      0.00000000       0.00000000       1.34975282 </v>
    <i name="Tr[quadrupol]"> -74940.89424864 </i>
    <i name="Echarged">      0.00000000 </i>
    <i name="Edipol_quadrupol">      0.00000000 </i>
    <i name="Eion">      0.00000000 </i>
   </dipole>
   <energy>
    <i name="e_fr_energy">   -703.70556275 </i>
    <i name="e_wo_entrp">   -703.69811156 </i>
    <i name="e_0_energy">   -703.70183715 </i>
   </energy>
  </scstep>
  <scstep>
   <time name="dav">  592.16  595.36</time>
   <time name="total">  598.74  601.94</time>
   <dipole>
    <v name="dipole">      0.00000000       0.00000000       1.36473257 </v>
    <i name="Tr[quadrupol]"> -74941.08567855 </i>
    <i name="Echarged">      0.00000000 </i>
    <i name="Edipol_quadrupol">      0.00000000 </i>
    <i name="Eion">      0.00000000 </i>
   </dipole>
   <energy>
    <i name="e_fr_energy">   -703.70595588 </i>
    <i name="e_wo_entrp">   -703.69850305 </i>
    <i name="e_0_energy">   -703.70222947 </i>
   </energy>
  </scstep>
  <scstep>
   <time name="dav">  538.58  543.34</time>
   <time name="total">  546.54  551.30</time>
   <dipole>
    <v name="dipole">      0.00000000       0.00000000       1.37629753 </v>
    <i name="Tr[quadrupol]"> -74941.22073898 </i>
    <i name="Echarged">      0.00000000 </i>
    <i name="Edipol_quadrupol">      0.00000000 </i>
    <i name="Eion">      0.00000000 </i>
   </dipole>
   <energy>
    <i name="e_fr_energy">   -703.70614493 </i>
    <i name="e_wo_entrp">   -703.69869097 </i>
    <i name="e_0_energy">   -703.70241795 </i>
   </energy>
  </scstep>
  <scstep>
   <time name="dav">  541.19  544.23</time>
   <time name="total">  547.69  550.79</time>
   <dipole>
    <v name="dipole">      0.00000000       0.00000000       1.38451039 </v>
    <i name="Tr[quadrupol]"> -74941.30597218 </i>
    <i name="Echarged">      0.00000000 </i>
    <i name="Edipol_quadrupol">      0.00000000 </i>
    <i name="Eion">      0.00000000 </i>
   </dipole>
   <energy>
    <i name="e_fr_energy">   -703.70629858 </i>
    <i name="e_wo_entrp">   -703.69884377 </i>
    <i name="e_0_energy">   -703.70257118 </i>
   </energy>
  </scstep>
  <scstep>
   <time name="dav">  558.02  560.29</time>
   <time name="total">  564.56  566.82</time>
   <dipole>
    <v name="dipole">      0.00000000       0.00000000       1.38980735 </v>
    <i name="Tr[quadrupol]"> -74941.00986367 </i>
    <i name="Echarged">      0.00000000 </i>
    <i name="Edipol_quadrupol">      0.00000000 </i>
    <i name="Eion">      0.00000000 </i>
   </dipole>
   <energy>
    <i name="e_fr_energy">   -703.70642858 </i>
    <i name="e_wo_entrp">   -703.69897334 </i>
    <i name="e_0_energy">   -703.70270096 </i>
   </energy>
  </scstep>
  <scstep>
   <time name="dav">  566.83  573.44</time>
   <time name="total">  573.30  579.98</time>
   <dipole>
    <v name="dipole">      0.00000000       0.00000000       1.39491965 </v>
    <i name="Tr[quadrupol]"> -74943.56271760 </i>
    <i name="Echarged">      0.00000000 </i>
    <i name="Edipol_quadrupol">      0.00000000 </i>
    <i name="Eion">      0.00000000 </i>
   </dipole>
   <energy>
    <i name="e_fr_energy">   -703.70644376 </i>
    <i name="e_wo_entrp">   -703.69898886 </i>
    <i name="e_0_energy">   -703.70271631 </i>
   </energy>
  </scstep>
  <scstep>
   <time name="dav">  537.37  539.47</time>
   <time name="total">  543.96  546.06</time>
   <dipole>
    <v name="dipole">      0.00000000       0.00000000       1.39539705 </v>
    <i name="Tr[quadrupol]"> -74944.66445080 </i>
    <i name="Echarged">      0.00000000 </i>
    <i name="Edipol_quadrupol">      0.00000000 </i>
    <i name="Eion">      0.00000000 </i>
   </dipole>
   <energy>
    <i name="e_fr_energy">   -703.70645161 </i>
    <i name="e_wo_entrp">   -703.69899675 </i>
    <i name="e_0_energy">   -703.70272418 </i>
   </energy>
  </scstep>
  <scstep>
   <time name="dav">  576.78  579.80</time>
   <time name="total">  583.29  586.37</time>
   <dipole>
    <v name="dipole">      0.00000000       0.00000000       1.39346153 </v>
    <i name="Tr[quadrupol]"> -74945.03186528 </i>
    <i name="Echarged">      0.00000000 </i>
    <i name="Edipol_quadrupol">      0.00000000 </i>
    <i name="Eion">      0.00000000 </i>
   </dipole>
   <energy>
    <i name="e_fr_energy">   -703.70645631 </i>
    <i name="e_wo_entrp">   -703.69900140 </i>
    <i name="e_0_energy">   -703.70272885 </i>
   </energy>
  </scstep>
  <scstep>
   <time name="dav">  526.85  531.29</time>
   <time name="total">  533.45  537.89</time>
   <dipole>
    <v name="dipole">      0.00000000       0.00000000       1.39070173 </v>
    <i name="Tr[quadrupol]"> -74944.67217688 </i>
    <i name="Echarged">      0.00000000 </i>
    <i name="Edipol_quadrupol">      0.00000000 </i>
    <i name="Eion">      0.00000000 </i>
   </dipole>
   <energy>
    <i name="e_fr_energy">   -703.70646249 </i>
    <i name="e_wo_entrp">   -703.69900731 </i>
    <i name="e_0_energy">   -703.70273490 </i>
   </energy>
  </scstep>
  <scstep>
   <time name="dav">  605.53  608.16</time>
   <time name="total">  612.07  614.74</time>
   <dipole>
    <v name="dipole">      0.00000000       0.00000000       1.39087416 </v>
    <i name="Tr[quadrupol]"> -74944.67142785 </i>
    <i name="Echarged">      0.00000000 </i>
    <i name="Edipol_quadrupol">      0.00000000 </i>
    <i name="Eion">      0.00000000 </i>
   </dipole>
   <energy>
    <i name="e_fr_energy">   -703.70646267 </i>
    <i name="e_wo_entrp">   -703.69900744 </i>
    <i name="e_0_energy">   -703.70273505 </i>
   </energy>
  </scstep>
  <scstep>
   <time name="dav">  626.40  631.81</time>
   <time name="total">  632.91  638.38</time>
   <dipole>
    <v name="dipole">      0.00000000       0.00000000       1.39098148 </v>
    <i name="Tr[quadrupol]"> -74944.67119525 </i>
    <i name="Echarged">      0.00000000 </i>
    <i name="Edipol_quadrupol">      0.00000000 </i>
    <i name="Eion">      0.00000000 </i>
   </dipole>
   <energy>
    <i name="e_fr_energy">   -703.70646259 </i>
    <i name="e_wo_entrp">   -703.69900734 </i>
    <i name="e_0_energy">   -703.70273497 </i>
   </energy>
  </scstep>
  <scstep>
   <time name="dav">  521.55  526.18</time>
   <time name="total">  528.06  532.76</time>
   <dipole>
    <v name="dipole">      0.00000000       0.00000000       1.39098635 </v>
    <i name="Tr[quadrupol]"> -74944.67117402 </i>
    <i name="Echarged">      0.00000000 </i>
    <i name="Edipol_quadrupol">      0.00000000 </i>
    <i name="Eion">      0.00000000 </i>
   </dipole>
   <energy>
    <i name="e_fr_energy">   -703.70646260 </i>
    <i name="e_wo_entrp">   -703.69900734 </i>
    <i name="e_0_energy">   -703.70273497 </i>
   </energy>
  </scstep>
  <scstep>
   <time name="dav">  337.00  340.76</time>
   <time name="total">  343.68  347.47</time>
   <dipole>
    <v name="dipole">      0.00000000       0.00000000       1.39101458 </v>
    <i name="Tr[quadrupol]"> -74944.67109682 </i>
    <i name="Echarged">      0.00000000 </i>
    <i name="Edipol_quadrupol">      0.00000000 </i>
    <i name="Eion">      0.00000000 </i>
   </dipole>
   <energy>
    <i name="e_fr_energy">   -703.70646255 </i>
    <i name="e_wo_entrp">   -703.69900731 </i>
    <i name="e_0_energy">   -703.70273493 </i>
   </energy>
  </scstep>
  <scstep>
   <time name="dav">  558.08  562.88</time>
   <time name="total">  564.60  569.46</time>
   <dipole>
    <v name="dipole">      0.00000000       0.00000000       1.39104627 </v>
    <i name="Tr[quadrupol]"> -74944.67052901 </i>
    <i name="Echarged">      0.00000000 </i>
    <i name="Edipol_quadrupol">      0.00000000 </i>
    <i name="Eion">      0.00000000 </i>
   </dipole>
   <energy>
    <i name="e_fr_energy">   -703.70646267 </i>
    <i name="e_wo_entrp">   -703.69900754 </i>
    <i name="e_0_energy">   -703.70273510 </i>
   </energy>
  </scstep>
  <scstep>
   <time name="dav">  550.05  552.17</time>
   <time name="total">  556.59  558.77</time>
   <dipole>
    <v name="dipole">      0.00000000       0.00000000       1.39120135 </v>
    <i name="Tr[quadrupol]"> -74944.85161737 </i>
    <i name="Echarged">      0.00000000 </i>
    <i name="Edipol_quadrupol">      0.00000000 </i>
    <i name="Eion">      0.00000000 </i>
   </dipole>
   <energy>
    <i name="e_fr_energy">   -703.70646324 </i>
    <i name="e_wo_entrp">   -703.69900823 </i>
    <i name="e_0_energy">   -703.70273574 </i>
   </energy>
  </scstep>
  <scstep>
   <time name="dav">  518.67  522.10</time>
   <time name="total">  527.32  530.82</time>
   <dipole>
    <v name="dipole">      0.00000000       0.00000000       1.39107789 </v>
    <i name="Tr[quadrupol]"> -74944.85299564 </i>
    <i name="Echarged">      0.00000000 </i>
    <i name="Edipol_quadrupol">      0.00000000 </i>
    <i name="Eion">      0.00000000 </i>
   </dipole>
   <energy>
    <i name="e_fr_energy">   -703.70646386 </i>
    <i name="e_wo_entrp">   -703.69900866 </i>
    <i name="e_0_energy">   -703.70273626 </i>
   </energy>
  </scstep>
  <scstep>
   <time name="dav">  513.19  516.34</time>
   <time name="total">  519.72  522.92</time>
   <dipole>
    <v name="dipole">      0.00000000       0.00000000       1.39109824 </v>
    <i name="Tr[quadrupol]"> -74944.85305840 </i>
    <i name="Echarged">      0.00000000 </i>
    <i name="Edipol_quadrupol">      0.00000000 </i>
    <i name="Eion">      0.00000000 </i>
   </dipole>
   <energy>
    <i name="e_fr_energy">   -703.70646385 </i>
    <i name="e_wo_entrp">   -703.69900863 </i>
    <i name="e_0_energy">   -703.70273624 </i>
   </energy>
  </scstep>
  <scstep>
   <time name="dav">  356.82  360.68</time>
   <time name="total">  363.38  367.30</time>
   <dipole>
    <v name="dipole">      0.00000000       0.00000000       1.39111502 </v>
    <i name="Tr[quadrupol]"> -74944.85330339 </i>
    <i name="Echarged">      0.00000000 </i>
    <i name="Edipol_quadrupol">      0.00000000 </i>
    <i name="Eion">      0.00000000 </i>
   </dipole>
   <energy>
    <i name="e_fr_energy">   -703.70646393 </i>
    <i name="e_wo_entrp">   -703.69900871 </i>
    <i name="e_0_energy">   -703.70273632 </i>
   </energy>
  </scstep>
  <scstep>
   <time name="dav">  472.47  474.67</time>
   <time name="total">  481.18  483.40</time>
   <dipole>
    <v name="dipole">      0.00000000       0.00000000       1.39090679 </v>
    <i name="Tr[quadrupol]"> -74944.85462392 </i>
    <i name="Echarged">      0.00000000 </i>
    <i name="Edipol_quadrupol">      0.00000000 </i>
    <i name="Eion">      0.00000000 </i>
   </dipole>
   <energy>
    <i name="e_fr_energy">   -703.70646436 </i>
    <i name="e_wo_entrp">   -703.69900902 </i>
    <i name="e_0_energy">   -703.70273669 </i>
   </energy>
  </scstep>
  <scstep>
   <time name="dav">  427.75  428.95</time>
   <time name="total">  434.26  435.51</time>
   <dipole>
    <v name="dipole">      0.00000000       0.00000000       1.39091490 </v>
    <i name="Tr[quadrupol]"> -74944.67424430 </i>
    <i name="Echarged">      0.00000000 </i>
    <i name="Edipol_quadrupol">      0.00000000 </i>
    <i name="Eion">      0.00000000 </i>
   </dipole>
   <energy>
    <i name="e_fr_energy">   -703.70646487 </i>
    <i name="e_wo_entrp">   -703.69900943 </i>
    <i name="e_0_energy">   -703.70273715 </i>
   </energy>
  </scstep>
  <scstep>
   <time name="dav">  699.10  704.60</time>
   <time name="total">  706.69  712.93</time>
   <dipole>
    <v name="dipole">      0.00000000       0.00000000       1.39090266 </v>
    <i name="Tr[quadrupol]"> -74944.49378276 </i>
    <i name="Echarged">      0.00000000 </i>
    <i name="Edipol_quadrupol">      0.00000000 </i>
    <i name="Eion">      0.00000000 </i>
   </dipole>
   <energy>
    <i name="e_fr_energy">   -703.70646564 </i>
    <i name="e_wo_entrp">   -703.69900997 </i>
    <i name="e_0_energy">   -703.70273780 </i>
   </energy>
  </scstep>
  <scstep>
   <time name="dav">  514.06  516.48</time>
   <time name="total">  520.60  523.05</time>
   <dipole>
    <v name="dipole">      0.00000000       0.00000000       1.39091382 </v>
    <i name="Tr[quadrupol]"> -74944.31232443 </i>
    <i name="Echarged">      0.00000000 </i>
    <i name="Edipol_quadrupol">      0.00000000 </i>
    <i name="Eion">      0.00000000 </i>
   </dipole>
   <energy>
    <i name="e_fr_energy">   -703.70646577 </i>
    <i name="e_wo_entrp">   -703.69901010 </i>
    <i name="e_0_energy">   -703.70273794 </i>
   </energy>
  </scstep>
  <scstep>
   <time name="dav">  357.96  361.80</time>
   <time name="total">  366.27  370.23</time>
   <dipole>
    <v name="dipole">      0.00000000       0.00000000       1.39091081 </v>
    <i name="Tr[quadrupol]"> -74944.31221173 </i>
    <i name="Echarged">      0.00000000 </i>
    <i name="Edipol_quadrupol">      0.00000000 </i>
    <i name="Eion">      0.00000000 </i>
   </dipole>
   <energy>
    <i name="e_fr_energy">   -703.70646575 </i>
    <i name="e_wo_entrp">   -703.69901011 </i>
    <i name="e_0_energy">   -703.70273793 </i>
   </energy>
  </scstep>
  <scstep>
   <time name="dav">  328.92  332.65</time>
   <time name="total">  329.55  333.32</time>
   <dipole>
    <v name="dipole">      0.00000000       0.00000000       1.39088718 </v>
    <i name="Tr[quadrupol]"> -74944.31221959 </i>
    <i name="Echarged">      0.00000000 </i>
    <i name="Edipol_quadrupol">      0.00000000 </i>
    <i name="Eion">      0.00000000 </i>
   </dipole>
   <energy>
    <i name="alphaZ">   1782.37361106 </i>
    <i name="ewald"> 318716.33691579 </i>
    <i name="hartreedc">-467553.34759115 </i>
    <i name="XCdc">   3224.69436623 </i>
    <i name="pawpsdc"> 119805.32932490 </i>
    <i name="pawaedc">-118011.54616709 </i>
    <i name="eentropy">     -0.00745559 </i>
    <i name="bandstr"> -15366.46217055 </i>
    <i name="atom"> 156698.92270065 </i>
    <i name="e_fr_energy">   -703.70646574 </i>
    <i name="e_wo_entrp">   -703.69901015 </i>
    <i name="e_0_energy">   -703.70273795 </i>
   </energy>
  </scstep>
  <structure>
   <crystal>
    <varray name="basis" >
     <v>      17.03433609       0.00000000       0.00000000 </v>
     <v>      -8.51716805      14.75216779       0.00000000 </v>
     <v>       0.00000000       0.00000000      31.29407310 </v>
    </varray>
    <i name="volume">   7863.99353597 </i>
    <varray name="rec_basis" >
     <v>       0.05870496       0.03389332       0.00000000 </v>
     <v>       0.00000000       0.06778665       0.00000000 </v>
     <v>       0.00000000       0.00000000       0.03195493 </v>
    </varray>
   </crystal>
   <varray name="positions" >
    <v>       0.04889542       0.39944771       0.99568253 </v>
    <v>       0.04889542       0.89944771       0.99568253 </v>
    <v>       0.54889542       0.39944771       0.99568253 </v>
    <v>       0.54889542       0.89944771       0.99568253 </v>
    <v>       0.35055229       0.39944771       0.99568253 </v>
    <v>       0.35055229       0.89944771       0.99568253 </v>
    <v>       0.85055229       0.39944771       0.99568253 </v>
    <v>       0.85055229       0.89944771       0.99568253 </v>
    <v>       0.35055229       0.20110457       0.99568253 </v>
    <v>       0.35055229       0.70110457       0.99568253 </v>
    <v>       0.85055229       0.20110457       0.99568253 </v>
    <v>       0.85055229       0.70110457       0.99568253 </v>
    <v>       0.02661586       0.05323172       0.99490245 </v>
    <v>       0.02661586       0.55323172       0.99490245 </v>
    <v>       0.52661586       0.05323172       0.99490245 </v>
    <v>       0.52661586       0.55323172       0.99490245 </v>
    <v>       0.19676828       0.22338414       0.99490245 </v>
    <v>       0.19676828       0.72338414       0.99490245 </v>
    <v>       0.69676828       0.22338414       0.99490245 </v>
    <v>       0.69676828       0.72338414       0.99490245 </v>
    <v>       0.25000000       0.00000000       0.99493075 </v>
    <v>       0.25000000       0.50000000       0.99493075 </v>
    <v>       0.75000000       0.00000000       0.99493075 </v>
    <v>       0.75000000       0.50000000       0.99493075 </v>
    <v>       0.02661586       0.22338414       0.99490245 </v>
    <v>       0.02661586       0.72338414       0.99490245 </v>
    <v>       0.52661586       0.22338414       0.99490245 </v>
[...]
       <r>    -6.2345    17.4018  1058.3839 </r>
       <r>    -6.1639    18.7576  1059.7079 </r>
       <r>    -6.0933     1.4623  1059.8111 </r>
       <r>    -6.0227    12.4886  1060.6927 </r>
       <r>    -5.9521    64.1981  1065.2242 </r>
       <r>    -5.8815    89.4137  1071.5356 </r>
       <r>    -5.8109    63.6097  1076.0256 </r>
       <r>    -5.7403    44.0137  1079.1324 </r>
       <r>    -5.6698    58.9508  1083.2935 </r>
       <r>    -5.5992    71.4218  1088.3349 </r>
       <r>    -5.5286    87.0916  1094.4824 </r>
       <r>    -5.4580    92.4940  1101.0113 </r>
       <r>    -5.3874    65.0313  1105.6016 </r>
       <r>    -5.3168   111.7720  1113.4912 </r>
       <r>    -5.2462   128.8867  1122.5889 </r>
       <r>    -5.1757   109.5008  1130.3182 </r>
       <r>    -5.1051   103.3002  1137.6098 </r>
       <r>    -5.0345    69.3924  1142.5080 </r>
       <r>    -4.9639    47.1054  1145.8330 </r>
       <r>    -4.8933    79.3854  1151.4366 </r>
       <r>    -4.8227    77.7375  1156.9238 </r>
       <r>    -4.7521    58.4107  1161.0468 </r>
       <r>    -4.6815    77.5537  1166.5211 </r>
       <r>    -4.6110    65.4418  1171.1404 </r>
       <r>    -4.5404    69.2828  1176.0308 </r>
       <r>    -4.4698    39.9725  1178.8523 </r>
       <r>    -4.3992    11.9895  1179.6986 </r>
       <r>    -4.3286    46.7369  1182.9976 </r>
       <r>    -4.2580    26.3854  1184.8601 </r>
       <r>    -4.1874    20.7348  1186.3237 </r>
       <r>    -4.1169    13.0626  1187.2457 </r>
       <r>    -4.0463    15.1709  1188.3166 </r>
       <r>    -3.9757    13.9896  1189.3041 </r>
       <r>    -3.9051     4.9608  1189.6543 </r>
       <r>    -3.8345    25.4845  1191.4531 </r>
       <r>    -3.7639    58.0193  1195.5485 </r>
       <r>    -3.6933    42.2476  1198.5306 </r>
       <r>    -3.6227    39.7558  1201.3369 </r>
       <r>    -3.5522    19.9413  1202.7444 </r>
       <r>    -3.4816    18.8198  1204.0729 </r>
       <r>    -3.4110    27.5177  1206.0153 </r>
       <r>    -3.3404    28.9785  1208.0608 </r>
       <r>    -3.2698    23.1021  1209.6914 </r>
       <r>    -3.1992    50.5169  1213.2573 </r>
       <r>    -3.1286   139.0132  1223.0697 </r>
       <r>    -3.0581   100.3269  1230.1515 </r>
       <r>    -2.9875    74.6782  1235.4228 </r>
       <r>    -2.9169    23.8989  1237.1097 </r>
       <r>    -2.8463    40.4989  1239.9684 </r>
       <r>    -2.7757    42.2545  1242.9510 </r>
       <r>    -2.7051    61.4752  1247.2903 </r>
       <r>    -2.6345    56.0912  1251.2496 </r>
       <r>    -2.5639    70.8675  1256.2519 </r>
       <r>    -2.4934    93.1777  1262.8290 </r>
       <r>    -2.4228   133.3631  1272.2427 </r>
       <r>    -2.3522   138.9713  1282.0522 </r>
       <r>    -2.2816   108.9691  1289.7440 </r>
       <r>    -2.2110    68.2208  1294.5594 </r>
       <r>    -2.1404    69.7474  1299.4827 </r>
       <r>    -2.0698    86.5816  1305.5942 </r>
       <r>    -1.9993    98.6204  1312.5555 </r>
       <r>    -1.9287   122.6881  1321.2156 </r>
       <r>    -1.8581   150.1038  1331.8109 </r>
       <r>    -1.7875   140.0656  1341.6977 </r>
       <r>    -1.7169   141.7243  1351.7015 </r>
       <r>    -1.6463   113.1199  1359.6863 </r>
       <r>    -1.5757   119.4612  1368.1186 </r>
       <r>    -1.5051   162.6812  1379.6018 </r>
       <r>    -1.4346   133.6883  1389.0384 </r>
       <r>    -1.3640    58.4517  1393.1643 </r>
       <r>    -1.2934    97.4996  1400.0465 </r>
       <r>    -1.2228   110.2292  1407.8272 </r>
       <r>    -1.1522   120.4894  1416.3321 </r>
       <r>    -1.0816   128.7976  1425.4235 </r>
       <r>    -1.0110   139.3327  1435.2585 </r>
       <r>    -0.9405   112.5505  1443.2031 </r>
       <r>    -0.8699   104.5865  1450.5855 </r>
       <r>    -0.7993    89.6945  1456.9167 </r>
       <r>    -0.7287    97.7183  1463.8143 </r>
       <r>    -0.6581   108.4478  1471.4693 </r>
       <r>    -0.5875   128.1223  1480.5130 </r>
       <r>    -0.5169   114.4355  1488.5906 </r>
       <r>    -0.4463    97.3804  1495.4644 </r>
       <r>    -0.3758    63.3675  1499.9373 </r>
       <r>    -0.3052    99.3558  1506.9505 </r>
       <r>    -0.2346    74.2526  1512.1917 </r>
       <r>    -0.1640    45.5564  1515.4074 </r>
       <r>    -0.0934    34.1161  1517.8155 </r>
       <r>    -0.0228    45.3867  1521.0192 </r>
       <r>     0.0478    26.7544  1522.9077 </r>
       <r>     0.1183    31.9400  1525.1623 </r>
       <r>     0.1889    18.5707  1526.4731 </r>
       <r>     0.2595    21.9433  1528.0220 </r>
       <r>     0.3301    20.2548  1529.4517 </r>
       <r>     0.4007    24.6815  1531.1939 </r>
       <r>     0.4713    18.7261  1532.5157 </r>
       <r>     0.5419    22.2520  1534.0864 </r>
       <r>     0.6125    14.4263  1535.1047 </r>
       <r>     0.6830     4.1398  1535.3970 </r>
       <r>     0.7536     2.1926  1535.5517 </r>
       <r>     0.8242     0.6201  1535.5955 </r>
       <r>     0.8948     4.3572  1535.9030 </r>
       <r>     0.9654     9.7810  1536.5935 </r>
       <r>     1.0360    27.8783  1538.5613 </r>
       <r>     1.1066    30.8419  1540.7383 </r>
       <r>     1.1771    18.6946  1542.0579 </r>
       <r>     1.2477    10.6676  1542.8109 </r>
       <r>     1.3183     1.5421  1542.9197 </r>
       <r>     1.3889    13.0526  1543.8411 </r>
       <r>     1.4595    59.5863  1548.0471 </r>
       <r>     1.5301    52.0365  1551.7202 </r>
       <r>     1.6007    17.6164  1552.9636 </r>
       <r>     1.6713    30.1690  1555.0932 </r>
       <r>     1.7418    49.4237  1558.5818 </r>
       <r>     1.8124    59.0966  1562.7533 </r>
       <r>     1.8830    53.0931  1566.5009 </r>
       <r>     1.9536    57.7821  1570.5796 </r>
       <r>     2.0242    35.1949  1573.0639 </r>
       <r>     2.0948    43.4042  1576.1276 </r>
       <r>     2.1654    32.1423  1578.3964 </r>
       <r>     2.2359    71.2247  1583.4240 </r>
       <r>     2.3065    85.5851  1589.4651 </r>
       <r>     2.3771   110.1822  1597.2425 </r>
       <r>     2.4477   118.1280  1605.5808 </r>
       <r>     2.5183    86.4139  1611.6804 </r>
       <r>     2.5889   101.8237  1618.8678 </r>
       <r>     2.6595   119.6954  1627.3167 </r>
       <r>     2.7301    95.3532  1634.0474 </r>
       <r>     2.8006   115.3058  1642.1864 </r>
       <r>     2.8712   119.9143  1650.6508 </r>
       <r>     2.9418   120.5937  1659.1631 </r>
       <r>     3.0124   114.1285  1667.2190 </r>
       <r>     3.0830   161.9043  1678.6473 </r>
       <r>     3.1536   110.2474  1686.4293 </r>
       <r>     3.2242    97.4705  1693.3094 </r>
       <r>     3.2947    80.0680  1698.9612 </r>
       <r>     3.3653    85.7169  1705.0116 </r>
       <r>     3.4359   111.7936  1712.9028 </r>
       <r>     3.5065    88.1384  1719.1242 </r>
       <r>     3.5771    73.7524  1724.3301 </r>
       <r>     3.6477    83.5683  1730.2289 </r>
       <r>     3.7183    56.9223  1734.2469 </r>
       <r>     3.7889    73.3111  1739.4216 </r>
       <r>     3.8594    81.0426  1745.1422 </r>
       <r>     3.9300   106.7356  1752.6763 </r>
       <r>     4.0006   120.3880  1761.1741 </r>
       <r>     4.0712   103.9402  1768.5109 </r>
       <r>     4.1418    87.4945  1774.6868 </r>
       <r>     4.2124    82.6040  1780.5175 </r>
       <r>     4.2830    98.0871  1787.4412 </r>
       <r>     4.3535    63.2098  1791.9029 </r>
       <r>     4.4241    88.4967  1798.1496 </r>
       <r>     4.4947   100.7392  1805.2605 </r>
       <r>     4.5653    81.1009  1810.9851 </r>
       <r>     4.6359   128.1843  1820.0332 </r>
       <r>     4.7065   132.9484  1829.4176 </r>
       <r>     4.7771   126.5266  1838.3487 </r>
       <r>     4.8477   109.4242  1846.0726 </r>
       <r>     4.9182    26.1789  1847.9205 </r>
       <r>     4.9888     1.1232  1847.9997 </r>
       <r>     5.0594     0.0038  1848.0000 </r>
       <r>     5.1300     0.0000  1848.0000 </r>
       <r>     5.2006     0.0000  1848.0000 </r>
       <r>     5.2712     0.0000  1848.0000 </r>
       <r>     5.3418     0.0000  1848.0000 </r>
       <r>     5.4123     0.0000  1848.0000 </r>
       <r>     5.4829     0.0000  1848.0000 </r>
       <r>     5.5535     0.0000  1848.0000 </r>
       <r>     5.6241     0.0000  1848.0000 </r>
       <r>     5.6947     0.0000  1848.0000 </r>
       <r>     5.7653     0.0000  1848.0000 </r>
       <r>     5.8359     0.0000  1848.0000 </r>
      </set>
     </set>
    </array>
   </total>
  </dos>
 </calculation>
 <structure name="finalpos" >
  <crystal>
   <varray name="basis" >
    <v>      17.03433609       0.00000000       0.00000000 </v>
    <v>      -8.51716805      14.75216779       0.00000000 </v>
    <v>       0.00000000       0.00000000      31.29407310 </v>
   </varray>
   <i name="volume">   7863.99353597 </i>
   <varray name="rec_basis" >
    <v>       0.05870496       0.03389332       0.00000000 </v>
    <v>       0.00000000       0.06778665       0.00000000 </v>
    <v>       0.00000000       0.00000000       0.03195493 </v>
   </varray>
  </crystal>
  <varray name="positions" >
   <v>       0.04889542       0.39944771       0.99568253 </v>
   <v>       0.04889542       0.89944771       0.99568253 </v>
   <v>       0.54889542       0.39944771       0.99568253 </v>
   <v>       0.54889542       0.89944771       0.99568253 </v>
   <v>       0.35055229       0.39944771       0.99568253 </v>
   <v>       0.35055229       0.89944771       0.99568253 </v>
   <v>       0.85055229       0.39944771       0.99568253 </v>
   <v>       0.85055229       0.89944771       0.99568253 </v>
   <v>       0.35055229       0.20110457       0.99568253 </v>
   <v>       0.35055229       0.70110457       0.99568253 </v>
   <v>       0.85055229       0.20110457       0.99568253 </v>
   <v>       0.85055229       0.70110457       0.99568253 </v>
   <v>       0.02661586       0.05323172       0.99490245 </v>
   <v>       0.02661586       0.55323172       0.99490245 </v>
   <v>       0.52661586       0.05323172       0.99490245 </v>
   <v>       0.52661586       0.55323172       0.99490245 </v>
   <v>       0.19676828       0.22338414       0.99490245 </v>
   <v>       0.19676828       0.72338414       0.99490245 </v>
   <v>       0.69676828       0.22338414       0.99490245 </v>
   <v>       0.69676828       0.72338414       0.99490245 </v>
   <v>       0.25000000       0.00000000       0.99493075 </v>
   <v>       0.25000000       0.50000000       0.99493075 </v>
   <v>       0.75000000       0.00000000       0.99493075 </v>
   <v>       0.75000000       0.50000000       0.99493075 </v>
   <v>       0.02661586       0.22338414       0.99490245 </v>
   <v>       0.02661586       0.72338414       0.99490245 </v>
   <v>       0.52661586       0.22338414       0.99490245 </v>
   <v>       0.52661586       0.72338414       0.99490245 </v>
   <v>       0.16687125       0.33374251       0.11114905 </v>
   <v>       0.16687125       0.83374251       0.11114905 </v>
   <v>       0.66687125       0.33374251       0.11114905 </v>
   <v>       0.66687125       0.83374251       0.11114905 </v>
   <v>       0.41625749       0.08312875       0.11114905 </v>
   <v>       0.41625749       0.58312875       0.11114905 </v>
   <v>       0.91625749       0.08312875       0.11114905 </v>
   <v>       0.91625749       0.58312875       0.11114905 </v>
   <v>       0.41666666       0.33333334       0.10951073 </v>
   <v>       0.41666666       0.83333334       0.10951073 </v>
   <v>       0.91666666       0.33333334       0.10951073 </v>
   <v>       0.91666666       0.83333334       0.10951073 </v>
   <v>       0.16687125       0.08312875       0.11114905 </v>
   <v>       0.16687125       0.58312875       0.11114905 </v>
   <v>       0.66687125       0.08312875       0.11114905 </v>
   <v>       0.66687125       0.58312875       0.11114905 </v>
   <v>       0.33333334       0.16666667       0.22222222 </v>
   <v>       0.33333334       0.66666667       0.22222222 </v>
   <v>       0.83333334       0.16666667       0.22222222 </v>
   <v>       0.83333334       0.66666667       0.22222222 </v>
   <v>       0.08333331       0.41666666       0.22222222 </v>
   <v>       0.08333331       0.91666666       0.22222222 </v>
   <v>       0.58333331       0.41666666       0.22222222 </v>
   <v>       0.58333331       0.91666666       0.22222222 </v>
   <v>       0.08333331       0.16666669       0.22222222 </v>
   <v>       0.08333331       0.66666669       0.22222222 </v>
   <v>       0.58333331       0.16666669       0.22222222 </v>
   <v>       0.58333331       0.66666669       0.22222222 </v>
   <v>       0.33333334       0.41666666       0.22222222 </v>
   <v>       0.33333334       0.91666666       0.22222222 </v>
   <v>       0.83333334       0.41666666       0.22222222 </v>
   <v>       0.83333334       0.91666666       0.22222222 </v>
   <v>       0.00000000       0.00000000       0.33333334 </v>
   <v>       0.00000000       0.50000000       0.33333334 </v>
   <v>       0.50000000       0.00000000       0.33333334 </v>
   <v>       0.50000000       0.50000000       0.33333334 </v>
   <v>       0.25000000       0.25000000       0.33333334 </v>
   <v>       0.25000000       0.75000000       0.33333334 </v>
   <v>       0.75000000       0.25000000       0.33333334 </v>
   <v>       0.75000000       0.75000000       0.33333334 </v>
   <v>       0.25000000       0.00000000       0.33333334 </v>
   <v>       0.25000000       0.50000000       0.33333334 </v>
   <v>       0.75000000       0.00000000       0.33333334 </v>
   <v>       0.75000000       0.50000000       0.33333334 </v>
   <v>       0.00000000       0.25000000       0.33333334 </v>
   <v>       0.00000000       0.75000000       0.33333334 </v>
   <v>       0.50000000       0.25000000       0.33333334 </v>
   <v>       0.50000000       0.75000000       0.33333334 </v>
   <v>       0.16666667       0.33333334       0.44444445 </v>
   <v>       0.16666667       0.83333334       0.44444445 </v>
   <v>       0.66666667       0.33333334       0.44444445 </v>
   <v>       0.66666667       0.83333334       0.44444445 </v>
   <v>       0.41666666       0.08333334       0.44444445 </v>
   <v>       0.41666666       0.58333334       0.44444445 </v>
   <v>       0.91666666       0.08333334       0.44444445 </v>
   <v>       0.91666666       0.58333334       0.44444445 </v>
   <v>       0.41666666       0.33333334       0.44444445 </v>
   <v>       0.41666666       0.83333334       0.44444445 </v>
   <v>       0.91666666       0.33333334       0.44444445 </v>
   <v>       0.91666666       0.83333334       0.44444445 </v>
   <v>       0.16666667       0.08333334       0.44444445 </v>
   <v>       0.16666667       0.58333334       0.44444445 </v>
   <v>       0.66666667       0.08333334       0.44444445 </v>
   <v>       0.66666667       0.58333334       0.44444445 </v>
   <v>       0.00060404       0.00120809       0.07927097 </v>
   <v>       0.00060404       0.50120809       0.07927097 </v>
   <v>       0.50060404       0.00120809       0.07927097 </v>
   <v>       0.50060404       0.50120809       0.07927097 </v>
   <v>       0.00060404       0.24939596       0.07927100 </v>
   <v>       0.00060404       0.74939596       0.07927100 </v>
   <v>       0.50060404       0.24939596       0.07927100 </v>
   <v>       0.50060404       0.74939596       0.07927100 </v>
   <v>       0.25083021       0.00000000       0.08139676 </v>
   <v>       0.25000000       0.50000000       0.08094485 </v>
   <v>       0.75000000       0.00000000       0.08094485 </v>
   <v>       0.75000000       0.50000000       0.08094485 </v>
   <v>       0.24879191       0.24939596       0.07927100 </v>
   <v>       0.24879191       0.74939596       0.07927100 </v>
   <v>       0.74879191       0.24939596       0.07927100 </v>
   <v>       0.74879191       0.74939596       0.07927100 </v>
   <v>       0.16660331       0.33320661       0.19452973 </v>
   <v>       0.16660331       0.83320661       0.19452973 </v>
   <v>       0.66660331       0.33320661       0.19452973 </v>
   <v>       0.66660331       0.83320661       0.19452973 </v>
   <v>       0.16660331       0.08339670       0.19452973 </v>
   <v>       0.16660331       0.58339670       0.19452973 </v>
   <v>       0.66660331       0.08339670       0.19452973 </v>
   <v>       0.66660331       0.58339670       0.19452973 </v>
   <v>       0.41666666       0.33333334       0.19342860 </v>
   <v>       0.41666666       0.83333334       0.19342860 </v>
   <v>       0.91666666       0.33333334       0.19342860 </v>
   <v>       0.91666666       0.83333334       0.19342860 </v>
   <v>       0.41679339       0.08339670       0.19452973 </v>
   <v>       0.41679339       0.58339670       0.19452973 </v>
   <v>       0.91679339       0.08339670       0.19452973 </v>
   <v>       0.91679339       0.58339670       0.19452973 </v>
   <v>       0.33333334       0.16666667       0.30555555 </v>
   <v>       0.33333334       0.66666667       0.30555555 </v>
   <v>       0.83333334       0.16666667       0.30555555 </v>
   <v>       0.83333334       0.66666667       0.30555555 </v>
   <v>       0.33333334       0.41666666       0.30555555 </v>
   <v>       0.33333334       0.91666666       0.30555555 </v>
   <v>       0.83333334       0.41666666       0.30555555 </v>
   <v>       0.83333334       0.91666666       0.30555555 </v>
   <v>       0.08333331       0.16666669       0.30555555 </v>
   <v>       0.08333331       0.66666669       0.30555555 </v>
   <v>       0.58333331       0.16666669       0.30555555 </v>
   <v>       0.58333331       0.66666669       0.30555555 </v>
   <v>       0.08333331       0.41666666       0.30555555 </v>
   <v>       0.08333331       0.91666666       0.30555555 </v>
   <v>       0.58333331       0.41666666       0.30555555 </v>
   <v>       0.58333331       0.91666666       0.30555555 </v>
   <v>       0.00000000       0.00000000       0.41666666 </v>
   <v>       0.00000000       0.50000000       0.41666666 </v>
   <v>       0.50000000       0.00000000       0.41666666 </v>
   <v>       0.50000000       0.50000000       0.41666666 </v>
   <v>       0.00000000       0.25000000       0.41666666 </v>
   <v>       0.00000000       0.75000000       0.41666666 </v>
   <v>       0.50000000       0.25000000       0.41666666 </v>
   <v>       0.50000000       0.75000000       0.41666666 </v>
   <v>       0.25000000       0.00000000       0.41666666 </v>
   <v>       0.25000000       0.50000000       0.41666666 </v>
   <v>       0.75000000       0.00000000       0.41666666 </v>
   <v>       0.75000000       0.50000000       0.41666666 </v>
   <v>       0.25000000       0.25000000       0.41666666 </v>
   <v>       0.25000000       0.75000000       0.41666666 </v>
   <v>       0.75000000       0.25000000       0.41666666 </v>
   <v>       0.75000000       0.75000000       0.41666666 </v>
   <v>       0.16666667       0.33333334       0.50007080 </v>
   <v>       0.16666667       0.83333334       0.50007080 </v>
   <v>       0.66666667       0.33333334       0.50007080 </v>
   <v>       0.66666667       0.83333334       0.50007080 </v>
   <v>       0.16666667       0.08333334       0.50007080 </v>
   <v>       0.16666667       0.58333334       0.50007080 </v>
   <v>       0.66666667       0.08333334       0.50007080 </v>
   <v>       0.66666667       0.58333334       0.50007080 </v>
   <v>       0.41666666       0.33333334       0.50007080 </v>
   <v>       0.41666666       0.83333334       0.50007080 </v>
   <v>       0.91666666       0.33333334       0.50007080 </v>
   <v>       0.91666666       0.83333334       0.50007080 </v>
   <v>       0.41666666       0.08333334       0.50007080 </v>
   <v>       0.41666666       0.58333334       0.50007080 </v>
   <v>       0.91666666       0.08333334       0.50007080 </v>
   <v>       0.91666666       0.58333334       0.50007080 </v>
  </varray>
 </structure>
</modeling>
