<?xml version="1.0" encoding="ISO-8859-1"?>
<modeling>
 <generator>
  <i name="program" type="string">vasp </i>
  <i name="version" type="string">5.4.4.18Apr17-6-g9f103f2a35  </i>
  <i name="subversion" type="string">(build Feb 09 2021 16:27:36) complex            parallel </i>
  <i name="platform" type="string">IFC15_impi </i>
  <i name="date" type="string">2021 04 29 </i>
  <i name="time" type="string">03:21:06 </i>
 </generator>
 <incar>
  <i type="int" name="ISTART">     0</i>
  <i type="string" name="PREC">a</i>
  <i type="logical" name="ADDGRID"> T  </i>
  <i type="int" name="NELM">   300</i>
  <i type="int" name="NELMIN">     5</i>
  <i type="int" name="IBRION">    -1</i>
  <i name="EDIFF">      0.00000100</i>
  <i name="ENCUT">    500.00000000</i>
  <i type="logical" name="LREAL"> F  </i>
  <i type="int" name="ISMEAR">     0</i>
  <i name="SIGMA">      0.05000000</i>
  <i type="logical" name="LWAVE"> F  </i>
  <i type="logical" name="LCHARG"> F  </i>
  <v type="int" name="KPOINT_BSE">    -1     0     0     0</v>
  <i type="int" name="NELM">   300</i>
 </incar>
 <structure name="primitive_cell" >
  <crystal>
   <varray name="basis" >
    <v>      10.28518105       0.00000000       0.00000000 </v>
    <v>       5.14259052       8.90722807       0.00000000 </v>
    <v>       0.00000000       0.00000000      27.79016876 </v>
   </varray>
   <i name="volume">   2545.92553775 </i>
   <varray name="rec_basis" >
    <v>       0.09722726      -0.05613419       0.00000000 </v>
    <v>       0.00000000       0.11226837       0.00000000 </v>
    <v>       0.00000000       0.00000000       0.03598395 </v>
   </varray>
  </crystal>
  <varray name="positions" >
   <v>       0.00000000       0.00000000       0.22663990 </v>
   <v>       0.16666666      -0.08333334       0.30218653 </v>
   <v>      -0.08333334       0.16666666       0.30218653 </v>
   <v>       0.25000000       0.00000000       0.22663990 </v>
   <v>       0.00000000      -0.25000000       0.22663990 </v>
   <v>       0.25000000      -0.25000000       0.22663990 </v>
   <v>      -0.25000000       0.25000000       0.22663990 </v>
   <v>       0.00000000       0.25000000       0.22663990 </v>
   <v>      -0.25000000       0.00000000       0.22663990 </v>
   <v>      -0.08333334      -0.08333334       0.30218653 </v>
   <v>       0.16666666       0.16666666       0.30218653 </v>
   <v>       0.16666666      -0.33333334       0.30218653 </v>
   <v>      -0.33333334       0.16666666       0.30218653 </v>
   <v>       0.08333333       0.08333333       0.37716320 </v>
   <v>       0.08351614      -0.16675810       0.37729758 </v>
   <v>      -0.16675810       0.08351614       0.37729758 </v>
   <v>       0.41666666      -0.08333334       0.30218653 </v>
   <v>      -0.08333334       0.41666666       0.30218653 </v>
   <v>      -0.33333334       0.41666666       0.30218653 </v>
   <v>       0.41666666      -0.33333334       0.30218653 </v>
   <v>      -0.50000000       0.25000000       0.22663990 </v>
   <v>       0.25000000       0.25000000       0.22663990 </v>
   <v>       0.25000000      -0.50000000       0.22663990 </v>
   <v>      -0.25000000      -0.50000000       0.22663990 </v>
   <v>      -0.25000000      -0.25000000       0.22663990 </v>
   <v>      -0.50000000      -0.25000000       0.22663990 </v>
   <v>      -0.08333334      -0.33333334       0.30218653 </v>
   <v>      -0.33333334      -0.08333334       0.30218653 </v>
   <v>       0.33324190      -0.16675810       0.37729758 </v>
   <v>      -0.16675810       0.33324190       0.37729758 </v>
   <v>      -0.16675810      -0.16675810       0.37729758 </v>
   <v>       0.00000000      -0.50000000       0.22663990 </v>
   <v>      -0.50000000      -0.50000000       0.22663990 </v>
   <v>      -0.50000000       0.00000000       0.22663990 </v>
   <v>      -0.41666667       0.08333333       0.37716320 </v>
   <v>       0.08333333      -0.41666667       0.37716320 </v>
   <v>       0.33324190      -0.41648386       0.37729758 </v>
   <v>      -0.41648386       0.33324190       0.37729758 </v>
   <v>       0.33324190       0.08351614       0.37729758 </v>
   <v>       0.08351614       0.33324190       0.37729758 </v>
   <v>       0.16666666       0.41666666       0.30218653 </v>
   <v>       0.41666666       0.16666666       0.30218653 </v>
   <v>       0.41666666       0.41666666       0.30218653 </v>
   <v>       0.00012997       0.00012997       0.45242342 </v>
   <v>      -0.33333334      -0.33333334       0.30218653 </v>
   <v>       0.00012997       0.24974005       0.45242342 </v>
   <v>       0.24974005       0.00012997       0.45242342 </v>
   <v>      -0.25025995       0.00012997       0.45242342 </v>
   <v>       0.00012997      -0.25025995       0.45242342 </v>
   <v>       0.25000000      -0.25000000       0.45288750 </v>
   <v>      -0.25000000       0.25000000       0.45288750 </v>
   <v>      -0.41666667      -0.41666667       0.37716320 </v>
   <v>      -0.41648386      -0.16675810       0.37729758 </v>
   <v>      -0.16675810      -0.41648386       0.37729758 </v>
   <v>       0.33324190       0.33324190       0.37729758 </v>
   <v>       0.24974005      -0.49987003       0.45242342 </v>
   <v>      -0.49987003       0.24974005       0.45242342 </v>
   <v>      -0.49987003      -0.25025995       0.45242342 </v>
   <v>      -0.25025995      -0.49987003       0.45242342 </v>
   <v>       0.25000000       0.25000000       0.45288750 </v>
   <v>      -0.25000000      -0.25000000       0.45288750 </v>
   <v>       0.00012997      -0.49987003       0.45242342 </v>
   <v>      -0.49987003       0.00012997       0.45242342 </v>
   <v>      -0.49987003      -0.49987003       0.45242342 </v>
   <v>      -0.08333334      -0.08333334      -0.47258061 </v>
   <v>      -0.08321199       0.16660598      -0.47186093 </v>
   <v>       0.16660598      -0.08321199      -0.47186093 </v>
   <v>       0.16660598       0.16660598      -0.47186093 </v>
   <v>      -0.33339402       0.16660598      -0.47186093 </v>
   <v>       0.16660598      -0.33339402      -0.47186093 </v>
   <v>       0.41666666      -0.08333334      -0.47258061 </v>
   <v>      -0.08333334       0.41666666      -0.47258061 </v>
   <v>      -0.33339402      -0.08321199      -0.47186093 </v>
   <v>      -0.08321199      -0.33339402      -0.47186093 </v>
   <v>      -0.33339402       0.41678801      -0.47186093 </v>
   <v>       0.41678801      -0.33339402      -0.47186093 </v>
   <v>       0.41666666       0.41666666      -0.47258061 </v>
   <v>       0.16660598       0.41678801      -0.47186093 </v>
   <v>       0.41678801       0.16660598      -0.47186093 </v>
   <v>      -0.33339402      -0.33339402      -0.47186093 </v>
   <v>       0.08470833       0.08333333      -0.39695772 </v>
   <v>      -0.16565471       0.08130935      -0.39679536 </v>
   <v>       0.08130935      -0.16565471      -0.39679536 </v>
   <v>      -0.16565471      -0.16565471      -0.39679536 </v>
   <v>      -0.16565471       0.33434529      -0.39679536 </v>
   <v>       0.33434529      -0.16565471      -0.39679536 </v>
   <v>      -0.41666667       0.08333333      -0.39746661 </v>
   <v>       0.08333333      -0.41666667      -0.39746661 </v>
   <v>       0.08130935       0.33434529      -0.39679536 </v>
   <v>       0.33434529       0.08130935      -0.39679536 </v>
   <v>       0.33434529      -0.41869065      -0.39679536 </v>
   <v>      -0.41869065       0.33434529      -0.39679536 </v>
   <v>      -0.41666667      -0.41666667      -0.39746661 </v>
   <v>      -0.41869065      -0.16565471      -0.39679536 </v>
   <v>      -0.16565471      -0.41869065      -0.39679536 </v>
   <v>       0.33434529       0.33434529      -0.39679536 </v>
   <v>      -0.00285352      -0.00285352      -0.31942752 </v>
   <v>       0.25000000      -0.25000000      -0.32519129 </v>
   <v>      -0.25000000       0.25000000      -0.32519129 </v>
   <v>      -0.24429296      -0.00285352      -0.31942752 </v>
   <v>      -0.00285352      -0.24429296      -0.31942752 </v>
   <v>      -0.00285352       0.25570704      -0.31942752 </v>
   <v>       0.25570704      -0.00285352      -0.31942752 </v>
   <v>       0.25000000       0.25000000      -0.32519129 </v>
   <v>      -0.25000000      -0.25000000      -0.32519129 </v>
   <v>       0.49714648      -0.24429296      -0.31942752 </v>
   <v>      -0.24429296       0.49714648      -0.31942752 </v>
   <v>       0.25570704       0.49714648      -0.31942752 </v>
   <v>       0.49714648       0.25570704      -0.31942752 </v>
   <v>      -0.00285352       0.49714648      -0.31942752 </v>
   <v>       0.49714648      -0.00285352      -0.31942752 </v>
   <v>       0.49714648       0.49714648      -0.31942752 </v>
   <v>       0.08333333       0.08333333      -0.27956112 </v>
   <v>      -0.41666667       0.08333333      -0.27956112 </v>
   <v>       0.08333333      -0.41666667      -0.27956112 </v>
   <v>      -0.41666667      -0.41666667      -0.27956112 </v>
  </varray>
 </structure>
 <varray name="primitive_index" >
  <v type="int" >        1 </v>
  <v type="int" >       22 </v>
  <v type="int" >       27 </v>
  <v type="int" >        9 </v>
  <v type="int" >        6 </v>
  <v type="int" >       14 </v>
  <v type="int" >       15 </v>
  <v type="int" >        5 </v>
  <v type="int" >       11 </v>
  <v type="int" >       32 </v>
  <v type="int" >       17 </v>
  <v type="int" >       18 </v>
  <v type="int" >       19 </v>
  <v type="int" >       33 </v>
  <v type="int" >       38 </v>
  <v type="int" >       43 </v>
  <v type="int" >       30 </v>
  <v type="int" >       31 </v>
  <v type="int" >       23 </v>
  <v type="int" >       26 </v>
  <v type="int" >        7 </v>
  <v type="int" >       13 </v>
  <v type="int" >       10 </v>
  <v type="int" >       12 </v>
  <v type="int" >       16 </v>
  <v type="int" >        8 </v>
  <v type="int" >       28 </v>
  <v type="int" >       24 </v>
  <v type="int" >       46 </v>
  <v type="int" >       47 </v>
  <v type="int" >       48 </v>
  <v type="int" >        2 </v>
  <v type="int" >        4 </v>
  <v type="int" >        3 </v>
  <v type="int" >       35 </v>
  <v type="int" >       34 </v>
  <v type="int" >       42 </v>
  <v type="int" >       39 </v>
  <v type="int" >       41 </v>
  <v type="int" >       37 </v>
  <v type="int" >       21 </v>
  <v type="int" >       25 </v>
  <v type="int" >       29 </v>
  <v type="int" >       49 </v>
  <v type="int" >       20 </v>
  <v type="int" >       53 </v>
  <v type="int" >       57 </v>
  <v type="int" >       59 </v>
  <v type="int" >       54 </v>
  <v type="int" >       62 </v>
  <v type="int" >       63 </v>
  <v type="int" >       36 </v>
  <v type="int" >       40 </v>
  <v type="int" >       44 </v>
  <v type="int" >       45 </v>
  <v type="int" >       58 </v>
  <v type="int" >       55 </v>
  <v type="int" >       56 </v>
  <v type="int" >       60 </v>
  <v type="int" >       61 </v>
  <v type="int" >       64 </v>
  <v type="int" >       50 </v>
  <v type="int" >       51 </v>
  <v type="int" >       52 </v>
  <v type="int" >       80 </v>
  <v type="int" >       75 </v>
  <v type="int" >       70 </v>
  <v type="int" >       65 </v>
  <v type="int" >       67 </v>
  <v type="int" >       66 </v>
  <v type="int" >       78 </v>
  <v type="int" >       79 </v>
  <v type="int" >       72 </v>
  <v type="int" >       76 </v>
  <v type="int" >       71 </v>
  <v type="int" >       74 </v>
  <v type="int" >       77 </v>
  <v type="int" >       69 </v>
  <v type="int" >       73 </v>
  <v type="int" >       68 </v>
  <v type="int" >       81 </v>
  <v type="int" >       91 </v>
  <v type="int" >       86 </v>
  <v type="int" >       96 </v>
  <v type="int" >       95 </v>
  <v type="int" >       94 </v>
  <v type="int" >       83 </v>
  <v type="int" >       82 </v>
  <v type="int" >       85 </v>
  <v type="int" >       89 </v>
  <v type="int" >       90 </v>
  <v type="int" >       87 </v>
  <v type="int" >       84 </v>
  <v type="int" >       88 </v>
  <v type="int" >       92 </v>
  <v type="int" >       93 </v>
  <v type="int" >      100 </v>
  <v type="int" >      110 </v>
  <v type="int" >      111 </v>
  <v type="int" >      108 </v>
  <v type="int" >      104 </v>
  <v type="int" >      103 </v>
  <v type="int" >      106 </v>
  <v type="int" >      109 </v>
  <v type="int" >      112 </v>
  <v type="int" >      102 </v>
  <v type="int" >      107 </v>
  <v type="int" >      105 </v>
  <v type="int" >      101 </v>
  <v type="int" >       99 </v>
  <v type="int" >       98 </v>
  <v type="int" >       97 </v>
  <v type="int" >      113 </v>
  <v type="int" >      115 </v>
  <v type="int" >      114 </v>
  <v type="int" >      116 </v>
 </varray>
 <kpoints>
  <generation param="Gamma">
   <v type="int" name="divisions">       4        4        1 </v>
   <v name="usershift">      0.00000000       0.00000000       0.00000000 </v>
   <v name="genvec1">      0.25000000      -0.00000000       0.00000000 </v>
   <v name="genvec2">      0.00000000       0.25000000       0.00000000 </v>
   <v name="genvec3">      0.00000000       0.00000000       1.00000000 </v>
   <v name="shift">      0.00000000       0.00000000       0.00000000 </v>
  </generation>
  <varray name="kpointlist" >
   <v>       0.00000000       0.00000000       0.00000000 </v>
   <v>       0.25000000      -0.00000000       0.00000000 </v>
   <v>       0.50000000      -0.00000000       0.00000000 </v>
   <v>       0.00000000       0.25000000       0.00000000 </v>
   <v>       0.25000000       0.25000000       0.00000000 </v>
   <v>       0.50000000       0.25000000       0.00000000 </v>
   <v>      -0.25000000       0.25000000       0.00000000 </v>
   <v>       0.00000000       0.50000000       0.00000000 </v>
   <v>       0.25000000       0.50000000       0.00000000 </v>
   <v>       0.50000000       0.50000000       0.00000000 </v>
  </varray>
  <varray name="weights" >
   <v>       0.06250000 </v>
   <v>       0.12500000 </v>
   <v>       0.06250000 </v>
   <v>       0.12500000 </v>
   <v>       0.12500000 </v>
   <v>       0.12500000 </v>
   <v>       0.12500000 </v>
   <v>       0.06250000 </v>
   <v>       0.12500000 </v>
   <v>       0.06250000 </v>
  </varray>
 </kpoints>
 <parameters>
  <separator name="general" >
   <i type="string" name="SYSTEM">unknown system</i>
   <i type="logical" name="LCOMPAT"> F  </i>
  </separator>
  <separator name="electronic" >
   <i type="string" name="PREC">a</i>
   <i name="ENMAX">    500.00000000</i>
   <i name="ENAUG">    605.39200000</i>
   <i name="EDIFF">      0.00000100</i>
   <i type="int" name="IALGO">    38</i>
   <i type="int" name="IWAVPR">    10</i>
   <i type="int" name="NBANDS">   756</i>
   <i name="NELECT">   1256.00000000</i>
   <i type="int" name="TURBO">     0</i>
   <i type="int" name="IRESTART">     0</i>
   <i type="int" name="NREBOOT">     0</i>
   <i type="int" name="NMIN">     0</i>
   <i name="EREF">      0.00000000</i>
   <separator name="electronic smearing" >
    <i type="int" name="ISMEAR">     0</i>
    <i name="SIGMA">      0.05000000</i>
    <i name="KSPACING">      0.50000000</i>
    <i type="logical" name="KGAMMA"> T  </i>
   </separator>
   <separator name="electronic projectors" >
    <i type="logical" name="LREAL"> F  </i>
    <v name="ROPT">      0.00000000      0.00000000</v>
    <i type="int" name="LMAXPAW">  -100</i>
    <i type="int" name="LMAXMIX">     2</i>
    <i type="logical" name="NLSPLINE"> F  </i>
   </separator>
   <separator name="electronic startup" >
    <i type="int" name="ISTART">     0</i>
    <i type="int" name="ICHARG">     2</i>
    <i type="int" name="INIWAV">     1</i>
   </separator>
   <separator name="electronic spin" >
    <i type="int" name="ISPIN">     1</i>
    <i type="logical" name="LNONCOLLINEAR"> F  </i>
    <v name="MAGMOM">      1.00000000      1.00000000      1.00000000      1.00000000      1.00000000      1.00000000      1.00000000      1.00000000      1.00000000      1.00000000      1.00000000      1.00000000      1.00000000      1.00000000      1.00000000      1.00000000      1.00000000      1.00000000      1.00000000      1.00000000
      1.00000000      1.00000000      1.00000000      1.00000000      1.00000000      1.00000000      1.00000000      1.00000000      1.00000000      1.00000000      1.00000000      1.00000000      1.00000000      1.00000000      1.00000000      1.00000000      1.00000000      1.00000000      1.00000000      1.00000000
      1.00000000      1.00000000      1.00000000      1.00000000      1.00000000      1.00000000      1.00000000      1.00000000      1.00000000      1.00000000      1.00000000      1.00000000      1.00000000      1.00000000      1.00000000      1.00000000      1.00000000      1.00000000      1.00000000      1.00000000
      1.00000000      1.00000000      1.00000000      1.00000000      1.00000000      1.00000000      1.00000000      1.00000000      1.00000000      1.00000000      1.00000000      1.00000000      1.00000000      1.00000000      1.00000000      1.00000000      1.00000000      1.00000000      1.00000000      1.00000000
      1.00000000      1.00000000      1.00000000      1.00000000      1.00000000      1.00000000      1.00000000      1.00000000      1.00000000      1.00000000      1.00000000      1.00000000      1.00000000      1.00000000      1.00000000      1.00000000      1.00000000      1.00000000      1.00000000      1.00000000
      1.00000000      1.00000000      1.00000000      1.00000000      1.00000000      1.00000000      1.00000000      1.00000000      1.00000000      1.00000000      1.00000000      1.00000000      1.00000000      1.00000000      1.00000000      1.00000000</v>
    <i name="NUPDOWN">     -1.00000000</i>
    <i type="logical" name="LSORBIT"> F  </i>
    <v name="SAXIS">      0.00000000      0.00000000      1.00000000</v>
    <i type="logical" name="LSPIRAL"> F  </i>
    <v name="QSPIRAL">      0.00000000      0.00000000      0.00000000</v>
    <i type="logical" name="LZEROZ"> F  </i>
   </separator>
   <separator name="electronic exchange-correlation" >
    <i type="logical" name="LASPH"> F  </i>
    <i type="logical" name="LMETAGGA"> F  </i>
   </separator>
   <separator name="electronic convergence" >
    <i type="int" name="NELM">   300</i>
    <i type="int" name="NELMDL">    -5</i>
    <i type="int" name="NELMIN">     5</i>
    <i name="ENINI">    500.00000000</i>
    <separator name="electronic convergence detail" >
     <i type="logical" name="LDIAG"> T  </i>
     <i type="logical" name="LSUBROT"> F  </i>
     <i name="WEIMIN">      0.00000000</i>
     <i name="EBREAK">      0.00000000</i>
     <i name="DEPER">      0.30000000</i>
     <i type="int" name="NRMM">     4</i>
     <i name="TIME">      0.40000000</i>
    </separator>
   </separator>
   <separator name="electronic mixer" >
    <i name="AMIX">      0.40000000</i>
    <i name="BMIX">      1.00000000</i>
    <i name="AMIN">      0.10000000</i>
    <i name="AMIX_MAG">      1.60000000</i>
    <i name="BMIX_MAG">      1.00000000</i>
    <separator name="electronic mixer details" >
     <i type="int" name="IMIX">     4</i>
     <i type="logical" name="MIXFIRST"> F  </i>
     <i type="int" name="MAXMIX">   -45</i>
     <i name="WC">    100.00000000</i>
     <i type="int" name="INIMIX">     1</i>
     <i type="int" name="MIXPRE">     1</i>
     <i type="int" name="MREMOVE">     5</i>
    </separator>
   </separator>
   <separator name="electronic dipolcorrection" >
    <i type="logical" name="LDIPOL"> F  </i>
    <i type="logical" name="LMONO"> F  </i>
    <i type="int" name="IDIPOL">     0</i>
    <i name="EPSILON">      1.00000000</i>
    <v name="DIPOL">   -100.00000000   -100.00000000   -100.00000000</v>
    <i name="EFIELD">      0.00000000</i>
   </separator>
  </separator>
  <separator name="grids" >
   <i type="int" name="NGX">    80</i>
   <i type="int" name="NGY">    80</i>
   <i type="int" name="NGZ">   210</i>
   <i type="int" name="NGXF">   160</i>
   <i type="int" name="NGYF">   160</i>
   <i type="int" name="NGZF">   420</i>
   <i type="logical" name="ADDGRID"> T  </i>
  </separator>
  <separator name="ionic" >
   <i type="int" name="NSW">     0</i>
   <i type="int" name="IBRION">    -1</i>
   <i type="int" name="MDALGO">     0</i>
   <i type="int" name="ISIF">     2</i>
   <i name="PSTRESS">      0.00000000</i>
   <i name="EDIFFG">      0.00001000</i>
   <i type="int" name="NFREE">     0</i>
   <i name="POTIM">      0.50000000</i>
   <i name="SMASS">     -3.00000000</i>
   <i name="SCALEE">      1.00000000</i>
  </separator>
  <separator name="ionic md" >
   <i name="TEBEG">      0.00010000</i>
   <i name="TEEND">      0.00010000</i>
   <i type="int" name="NBLOCK">     1</i>
   <i type="int" name="KBLOCK">     1</i>
   <i type="int" name="NPACO">   256</i>
   <i name="APACO">     16.00000000</i>
  </separator>
  <separator name="symmetry" >
   <i type="int" name="ISYM">     2</i>
   <i name="SYMPREC">      0.00001000</i>
  </separator>
  <separator name="dos" >
   <i type="int" name="LORBIT">     0</i>
   <v name="RWIGS">     -1.00000000     -1.00000000</v>
   <i type="int" name="NEDOS">   301</i>
   <i name="EMIN">     10.00000000</i>
   <i name="EMAX">    -10.00000000</i>
   <i name="EFERMI">      0.00000000</i>
  </separator>
  <separator name="writing" >
   <i type="int" name="NWRITE">     2</i>
   <i type="logical" name="LWAVE"> F  </i>
   <i type="logical" name="LDOWNSAMPLE"> F  </i>
   <i type="logical" name="LCHARG"> F  </i>
   <i type="logical" name="LPARD"> F  </i>
   <i type="logical" name="LVTOT"> F  </i>
   <i type="logical" name="LVHAR"> F  </i>
   <i type="logical" name="LELF"> F  </i>
   <i type="logical" name="LOPTICS"> F  </i>
   <v name="STM">      0.00000000      0.00000000      0.00000000      0.00000000      0.00000000      0.00000000      0.00000000</v>
  </separator>
  <separator name="performance" >
   <i type="int" name="NPAR">     4</i>
   <i type="int" name="NSIM">     4</i>
   <i type="int" name="NBLK">    -1</i>
   <i type="logical" name="LPLANE"> T  </i>
   <i type="logical" name="LSCALAPACK"> F  </i>
   <i type="logical" name="LSCAAWARE"> F  </i>
   <i type="logical" name="LSCALU"> F  </i>
   <i type="logical" name="LASYNC"> F  </i>
   <i type="logical" name="LORBITALREAL"> F  </i>
  </separator>
  <separator name="miscellaneous" >
   <i type="int" name="IDIOT">     3</i>
   <i type="int" name="ISPECIAL">     0</i>
   <i type="logical" name="LMUSIC"> F  </i>
   <v name="POMASS">     63.54600000     16.00000000</v>
   <v name="DARWINR">      0.00000000      0.00000000</v>
   <v name="DARWINV">      1.00000000      1.00000000</v>
   <i type="logical" name="LCORR"> T  </i>
  </separator>
  <i type="logical" name="GGA_COMPAT"> T  </i>
  <i type="logical" name="LBERRY"> F  </i>
  <i type="int" name="ICORELEVEL">     0</i>
  <i type="logical" name="LDAU"> F  </i>
  <i type="int" name="I_CONSTRAINED_M">     0</i>
  <separator name="electronic exchange-correlation" >
   <i type="string" name="GGA">--</i>
   <i type="int" name="VOSKOWN">     0</i>
   <i type="logical" name="LHFCALC"> F  </i>
   <i type="string" name="PRECFOCK"></i>
   <i type="logical" name="LSYMGRAD"> F  </i>
   <i type="logical" name="LHFONE"> F  </i>
   <i type="logical" name="LRHFCALC"> F  </i>
   <i type="logical" name="LTHOMAS"> F  </i>
   <i type="logical" name="LMODELHF"> F  </i>
   <i name="ENCUT4O">     -1.00000000</i>
   <i type="int" name="EXXOEP">     0</i>
   <i type="int" name="FOURORBIT">     0</i>
   <i name="AEXX">      0.00000000</i>
   <i name="HFALPHA">      0.00000000</i>
   <i name="MCALPHA">      0.00000000</i>
   <i name="ALDAX">      1.00000000</i>
   <i name="AGGAX">      1.00000000</i>
   <i name="ALDAC">      1.00000000</i>
   <i name="AGGAC">      1.00000000</i>
   <i type="int" name="NKREDX">     1</i>
   <i type="int" name="NKREDY">     1</i>
   <i type="int" name="NKREDZ">     1</i>
   <i type="logical" name="SHIFTRED"> F  </i>
   <i type="logical" name="ODDONLY"> F  </i>
   <i type="logical" name="EVENONLY"> F  </i>
   <i type="int" name="LMAXFOCK">     0</i>
   <i type="int" name="NMAXFOCKAE">     0</i>
   <i type="logical" name="LFOCKAEDFT"> F  </i>
   <i name="HFSCREEN">      0.00000000</i>
   <i name="HFSCREENC">      0.00000000</i>
   <i type="int" name="NBANDSGWLOW">     0</i>
  </separator>
  <separator name="vdW DFT" >
   <i type="logical" name="LUSE_VDW"> F  </i>
   <i name="Zab_VDW">     -0.84910000</i>
   <i name="PARAM1">      0.12340000</i>
   <i name="PARAM2">      1.00000000</i>
   <i name="PARAM3">      0.00000000</i>
  </separator>
  <separator name="model GW" >
   <i type="int" name="MODEL_GW">     0</i>
   <i name="MODEL_EPS0">     13.16858037</i>
   <i name="MODEL_ALPHA">      1.00000000</i>
  </separator>
  <separator name="linear response parameters" >
   <i type="logical" name="LEPSILON"> F  </i>
   <i type="logical" name="LRPA"> F  </i>
   <i type="logical" name="LNABLA"> F  </i>
   <i type="logical" name="LVEL"> F  </i>
   <i type="int" name="KINTER">     0</i>
   <i name="CSHIFT">      0.10000000</i>
   <i name="OMEGAMAX">     -1.00000000</i>
   <i name="DEG_THRESHOLD">      0.00200000</i>
   <i name="RTIME">     -0.10000000</i>
   <i name="WPLASMAI">      0.00000000</i>
   <v name="DFIELD">      0.00000000      0.00000000      0.00000000</v>
   <v name="WPLASMA">      0.00000000      0.00000000      0.00000000      0.00000000      0.00000000      0.00000000      0.00000000      0.00000000      0.00000000</v>
  </separator>
  <separator name="orbital magnetization" >
   <i type="logical" name="NUCIND"> F  </i>
   <v name="MAGPOS">      0.00000000      0.00000000      0.00000000</v>
   <i type="logical" name="LNICSALL"> T  </i>
   <i type="logical" name="ORBITALMAG"> F  </i>
   <i type="logical" name="LMAGBLOCH"> F  </i>
   <i type="logical" name="LCHIMAG"> F  </i>
   <i type="logical" name="LGAUGE"> T  </i>
   <i type="int" name="MAGATOM">     0</i>
   <v name="MAGDIPOL">      0.00000000      0.00000000      0.00000000</v>
   <v name="AVECCONST">      0.00000000      0.00000000      0.00000000</v>
  </separator>
  <separator name="response functions" >
   <i type="logical" name="LADDER"> F  </i>
   <i type="logical" name="LRPAFORCE"> F  </i>
   <i type="logical" name="LFXC"> F  </i>
   <i type="logical" name="LHARTREE"> T  </i>
   <i type="int" name="IBSE">     0</i>
   <v type="int" name="KPOINT">    -1     0     0     0</v>
   <i type="logical" name="LTCTE"> F  </i>
   <i type="logical" name="LTETE"> F  </i>
   <i type="logical" name="LTRIPLET"> F  </i>
   <i type="logical" name="LFXCEPS"> F  </i>
   <i type="logical" name="LFXHEG"> F  </i>
   <i type="int" name="NATURALO">     2</i>
   <i type="logical" name="L2ORDER"> F  </i>
   <i type="logical" name="LMP2LT"> F  </i>
   <i type="logical" name="LUSEW"> F  </i>
   <i name="ENCUTGW">     -2.00000000</i>
   <i name="ENCUTGWSOFT">     -2.00000000</i>
   <i name="ENCUTLF">     -1.00000000</i>
   <i type="int" name="LMAXMP2">    -1</i>
   <i name="SCISSOR">      0.00000000</i>
   <i type="int" name="NOMEGA">     0</i>
   <i type="int" name="NOMEGAR">     0</i>
   <i type="int" name="NBANDSGW">    -1</i>
   <i type="int" name="NBANDSO">    -1</i>
   <i type="int" name="NBANDSV">    -1</i>
   <i type="int" name="NELM">   300</i>
   <i type="int" name="NELMHF">     1</i>
   <i type="int" name="DIM">     3</i>
   <i type="int" name="ANTIRES">     0</i>
   <i name="OMEGAMAX">    -30.00000000</i>
   <i name="OMEGAMIN">    -30.00000000</i>
   <i name="OMEGATL">   -200.00000000</i>
   <i type="int" name="OMEGAGRID">   140</i>
   <i name="CSHIFT">     -0.10000000</i>
   <i type="logical" name="SELFENERGY"> F  </i>
   <i type="logical" name="LSPECTRAL"> F  </i>
   <i type="logical" name="LSPECTRALGW"> F  </i>
   <i type="logical" name="LSINGLES"> F  </i>
   <i type="logical" name="LFERMIGW"> F  </i>
   <i type="logical" name="ODDONLYGW"> F  </i>
   <i type="logical" name="EVENONLYGW"> F  </i>
   <i type="int" name="NKREDLFX">     1</i>
   <i type="int" name="NKREDLFY">     1</i>
   <i type="int" name="NKREDLFZ">     1</i>
   <i type="int" name="MAXMEM">  2800</i>
   <i type="int" name="TELESCOPE">     0</i>
   <i type="int" name="TAUPAR">     1</i>
   <i type="int" name="OMEGAPAR">    -1</i>
   <i name="LAMBDA">      1.00000000</i>
  </separator>
  <separator name="External order field" >
   <i name="OFIELD_KAPPA">      0.00000000</i>
   <v name="OFIELD_K">      0.00000000      0.00000000      0.00000000</v>
   <i name="OFIELD_Q6_NEAR">      0.00000000</i>
   <i name="OFIELD_Q6_FAR">      0.00000000</i>
   <i name="OFIELD_A">      0.00000000</i>
  </separator>
 </parameters>
 <atominfo>
  <atoms>     116 </atoms>
  <types>       2 </types>
  <array name="atoms" >
   <dimension dim="1">ion</dimension>
   <field type="string">element</field>
   <field type="int">atomtype</field>
   <set>
    <rc><c>Cu</c><c>   1</c></rc>
    <rc><c>Cu</c><c>   1</c></rc>
    <rc><c>Cu</c><c>   1</c></rc>
    <rc><c>Cu</c><c>   1</c></rc>
    <rc><c>Cu</c><c>   1</c></rc>
    <rc><c>Cu</c><c>   1</c></rc>
    <rc><c>Cu</c><c>   1</c></rc>
    <rc><c>Cu</c><c>   1</c></rc>
    <rc><c>Cu</c><c>   1</c></rc>
    <rc><c>Cu</c><c>   1</c></rc>
    <rc><c>Cu</c><c>   1</c></rc>
    <rc><c>Cu</c><c>   1</c></rc>
    <rc><c>Cu</c><c>   1</c></rc>
    <rc><c>Cu</c><c>   1</c></rc>
    <rc><c>Cu</c><c>   1</c></rc>
    <rc><c>Cu</c><c>   1</c></rc>
    <rc><c>Cu</c><c>   1</c></rc>
    <rc><c>Cu</c><c>   1</c></rc>
    <rc><c>Cu</c><c>   1</c></rc>
    <rc><c>Cu</c><c>   1</c></rc>
    <rc><c>Cu</c><c>   1</c></rc>
    <rc><c>Cu</c><c>   1</c></rc>
    <rc><c>Cu</c><c>   1</c></rc>
    <rc><c>Cu</c><c>   1</c></rc>
    <rc><c>Cu</c><c>   1</c></rc>
    <rc><c>Cu</c><c>   1</c></rc>
    <rc><c>Cu</c><c>   1</c></rc>
    <rc><c>Cu</c><c>   1</c></rc>
    <rc><c>Cu</c><c>   1</c></rc>
    <rc><c>Cu</c><c>   1</c></rc>
    <rc><c>Cu</c><c>   1</c></rc>
    <rc><c>Cu</c><c>   1</c></rc>
    <rc><c>Cu</c><c>   1</c></rc>
    <rc><c>Cu</c><c>   1</c></rc>
    <rc><c>Cu</c><c>   1</c></rc>
    <rc><c>Cu</c><c>   1</c></rc>
    <rc><c>Cu</c><c>   1</c></rc>
    <rc><c>Cu</c><c>   1</c></rc>
    <rc><c>Cu</c><c>   1</c></rc>
    <rc><c>Cu</c><c>   1</c></rc>
    <rc><c>Cu</c><c>   1</c></rc>
    <rc><c>Cu</c><c>   1</c></rc>
    <rc><c>Cu</c><c>   1</c></rc>
    <rc><c>Cu</c><c>   1</c></rc>
    <rc><c>Cu</c><c>   1</c></rc>
    <rc><c>Cu</c><c>   1</c></rc>
    <rc><c>Cu</c><c>   1</c></rc>
    <rc><c>Cu</c><c>   1</c></rc>
    <rc><c>Cu</c><c>   1</c></rc>
    <rc><c>Cu</c><c>   1</c></rc>
    <rc><c>Cu</c><c>   1</c></rc>
    <rc><c>Cu</c><c>   1</c></rc>
    <rc><c>Cu</c><c>   1</c></rc>
    <rc><c>Cu</c><c>   1</c></rc>
    <rc><c>Cu</c><c>   1</c></rc>
    <rc><c>Cu</c><c>   1</c></rc>
    <rc><c>Cu</c><c>   1</c></rc>
    <rc><c>Cu</c><c>   1</c></rc>
    <rc><c>Cu</c><c>   1</c></rc>
    <rc><c>Cu</c><c>   1</c></rc>
    <rc><c>Cu</c><c>   1</c></rc>
    <rc><c>Cu</c><c>   1</c></rc>
    <rc><c>Cu</c><c>   1</c></rc>
    <rc><c>Cu</c><c>   1</c></rc>
    <rc><c>Cu</c><c>   1</c></rc>
    <rc><c>Cu</c><c>   1</c></rc>
    <rc><c>Cu</c><c>   1</c></rc>
    <rc><c>Cu</c><c>   1</c></rc>
    <rc><c>Cu</c><c>   1</c></rc>
    <rc><c>Cu</c><c>   1</c></rc>
    <rc><c>Cu</c><c>   1</c></rc>
    <rc><c>Cu</c><c>   1</c></rc>
    <rc><c>Cu</c><c>   1</c></rc>
    <rc><c>Cu</c><c>   1</c></rc>
    <rc><c>Cu</c><c>   1</c></rc>
    <rc><c>Cu</c><c>   1</c></rc>
    <rc><c>Cu</c><c>   1</c></rc>
    <rc><c>Cu</c><c>   1</c></rc>
    <rc><c>Cu</c><c>   1</c></rc>
    <rc><c>Cu</c><c>   1</c></rc>
    <rc><c>Cu</c><c>   1</c></rc>
    <rc><c>Cu</c><c>   1</c></rc>
    <rc><c>Cu</c><c>   1</c></rc>
    <rc><c>Cu</c><c>   1</c></rc>
    <rc><c>Cu</c><c>   1</c></rc>
    <rc><c>Cu</c><c>   1</c></rc>
    <rc><c>Cu</c><c>   1</c></rc>
    <rc><c>Cu</c><c>   1</c></rc>
    <rc><c>Cu</c><c>   1</c></rc>
    <rc><c>Cu</c><c>   1</c></rc>
    <rc><c>Cu</c><c>   1</c></rc>
    <rc><c>Cu</c><c>   1</c></rc>
    <rc><c>Cu</c><c>   1</c></rc>
    <rc><c>Cu</c><c>   1</c></rc>
    <rc><c>Cu</c><c>   1</c></rc>
    <rc><c>Cu</c><c>   1</c></rc>
    <rc><c>Cu</c><c>   1</c></rc>
    <rc><c>Cu</c><c>   1</c></rc>
    <rc><c>Cu</c><c>   1</c></rc>
    <rc><c>Cu</c><c>   1</c></rc>
    <rc><c>Cu</c><c>   1</c></rc>
    <rc><c>Cu</c><c>   1</c></rc>
    <rc><c>Cu</c><c>   1</c></rc>
    <rc><c>Cu</c><c>   1</c></rc>
    <rc><c>Cu</c><c>   1</c></rc>
    <rc><c>Cu</c><c>   1</c></rc>
    <rc><c>Cu</c><c>   1</c></rc>
    <rc><c>Cu</c><c>   1</c></rc>
    <rc><c>Cu</c><c>   1</c></rc>
    <rc><c>Cu</c><c>   1</c></rc>
    <rc><c>Cu</c><c>   1</c></rc>
    <rc><c>Cu</c><c>   1</c></rc>
    <rc><c>O </c><c>   2</c></rc>
    <rc><c>O </c><c>   2</c></rc>
    <rc><c>O </c><c>   2</c></rc>
    <rc><c>O </c><c>   2</c></rc>
   </set>
  </array>
  <array name="atomtypes" >
   <dimension dim="1">type</dimension>
   <field type="int">atomspertype</field>
   <field type="string">element</field>
   <field>mass</field>
   <field>valence</field>
   <field type="string">pseudopotential</field>
   <set>
    <rc><c> 112</c><c>Cu</c><c>     63.54600000</c><c>     11.00000000</c><c> PAW_PBE Cu 05Jan2001                   </c></rc>
    <rc><c>   4</c><c>O </c><c>     16.00000000</c><c>      6.00000000</c><c> PAW_PBE O 08Apr2002                    </c></rc>
   </set>
  </array>
 </atominfo>
 <structure name="initialpos" >
  <crystal>
   <varray name="basis" >
    <v>      10.28518105       0.00000000       0.00000000 </v>
    <v>       5.14259052       8.90722807       0.00000000 </v>
    <v>       0.00000000       0.00000000      27.79016876 </v>
   </varray>
   <i name="volume">   2545.92553775 </i>
   <varray name="rec_basis" >
    <v>       0.09722726      -0.05613419       0.00000000 </v>
    <v>       0.00000000       0.11226837       0.00000000 </v>
    <v>       0.00000000       0.00000000       0.03598395 </v>
   </varray>
  </crystal>
  <varray name="positions" >
   <v>       0.00000000       0.00000000       0.22663990 </v>
   <v>       0.00000000       0.50000000       0.22663990 </v>
   <v>       0.50000000       0.00000000       0.22663990 </v>
   <v>       0.50000000       0.50000000       0.22663990 </v>
   <v>       0.00000000       0.25000000       0.22663990 </v>
   <v>       0.00000000       0.75000000       0.22663990 </v>
   <v>       0.50000000       0.25000000       0.22663990 </v>
   <v>       0.50000000       0.75000000       0.22663990 </v>
   <v>       0.25000000       0.00000000       0.22663990 </v>
   <v>       0.25000000       0.50000000       0.22663990 </v>
   <v>       0.75000000       0.00000000       0.22663990 </v>
   <v>       0.75000000       0.50000000       0.22663990 </v>
   <v>       0.25000000       0.25000000       0.22663990 </v>
   <v>       0.25000000       0.75000000       0.22663990 </v>
   <v>       0.75000000       0.25000000       0.22663990 </v>
   <v>       0.75000000       0.75000000       0.22663990 </v>
   <v>       0.16666666       0.16666666       0.30218653 </v>
   <v>       0.16666666       0.66666666       0.30218653 </v>
   <v>       0.66666666       0.16666666       0.30218653 </v>
   <v>       0.66666666       0.66666666       0.30218653 </v>
   <v>       0.16666666       0.41666666       0.30218653 </v>
   <v>       0.16666666       0.91666666       0.30218653 </v>
   <v>       0.66666666       0.41666666       0.30218653 </v>
   <v>       0.66666666       0.91666666       0.30218653 </v>
   <v>       0.41666666       0.16666666       0.30218653 </v>
   <v>       0.41666666       0.66666666       0.30218653 </v>
   <v>       0.91666666       0.16666666       0.30218653 </v>
   <v>       0.91666666       0.66666666       0.30218653 </v>
   <v>       0.41666666       0.41666666       0.30218653 </v>
   <v>       0.41666666       0.91666666       0.30218653 </v>
   <v>       0.91666666       0.41666666       0.30218653 </v>
   <v>       0.91666666       0.91666666       0.30218653 </v>
   <v>       0.08333333       0.08333333       0.37716320 </v>
   <v>       0.08333333       0.58333333       0.37716320 </v>
   <v>       0.58333333       0.08333333       0.37716320 </v>
   <v>       0.58333333       0.58333333       0.37716320 </v>
   <v>       0.08351614       0.33324190       0.37729758 </v>
   <v>       0.08351614       0.83324190       0.37729758 </v>
   <v>       0.58351614       0.33324190       0.37729758 </v>
   <v>       0.58351614       0.83324190       0.37729758 </v>
   <v>       0.33324190       0.08351614       0.37729758 </v>
   <v>       0.33324190       0.58351614       0.37729758 </v>
   <v>       0.83324190       0.08351614       0.37729758 </v>
   <v>       0.83324190       0.58351614       0.37729758 </v>
   <v>       0.33324190       0.33324190       0.37729758 </v>
   <v>       0.33324190       0.83324190       0.37729758 </v>
   <v>       0.83324190       0.33324190       0.37729758 </v>
   <v>       0.83324190       0.83324190       0.37729758 </v>
   <v>       0.00012997       0.00012997       0.45242342 </v>
   <v>       0.00012997       0.50012997       0.45242342 </v>
   <v>       0.50012997       0.00012997       0.45242342 </v>
   <v>       0.50012997       0.50012997       0.45242342 </v>
   <v>       0.00012997       0.24974005       0.45242342 </v>
   <v>       0.00012997       0.74974005       0.45242342 </v>
   <v>       0.50012997       0.24974005       0.45242342 </v>
   <v>       0.50012997       0.74974005       0.45242342 </v>
   <v>       0.24974005       0.00012997       0.45242342 </v>
   <v>       0.24974005       0.50012997       0.45242342 </v>
   <v>       0.74974005       0.00012997       0.45242342 </v>
   <v>       0.74974005       0.50012997       0.45242342 </v>
   <v>       0.25000000       0.25000000       0.45288750 </v>
   <v>       0.25000000       0.75000000       0.45288750 </v>
   <v>       0.75000000       0.25000000       0.45288750 </v>
   <v>       0.75000000       0.75000000       0.45288750 </v>
   <v>       0.16660598       0.16660598       0.52813907 </v>
   <v>       0.16660598       0.66660598       0.52813907 </v>
   <v>       0.66660598       0.16660598       0.52813907 </v>
   <v>       0.66660598       0.66660598       0.52813907 </v>
   <v>       0.16660598       0.41678801       0.52813907 </v>
   <v>       0.16660598       0.91678801       0.52813907 </v>
   <v>       0.66660598       0.41678801       0.52813907 </v>
   <v>       0.66660598       0.91678801       0.52813907 </v>
   <v>       0.41678801       0.16660598       0.52813907 </v>
   <v>       0.41678801       0.66660598       0.52813907 </v>
   <v>       0.91678801       0.16660598       0.52813907 </v>
   <v>       0.91678801       0.66660598       0.52813907 </v>
   <v>       0.41666666       0.41666666       0.52741939 </v>
   <v>       0.41666666       0.91666666       0.52741939 </v>
   <v>       0.91666666       0.41666666       0.52741939 </v>
   <v>       0.91666666       0.91666666       0.52741939 </v>
   <v>       0.08470833       0.08333333       0.60304228 </v>
   <v>       0.08333333       0.58333333       0.60253339 </v>
   <v>       0.58333333       0.08333333       0.60253339 </v>
   <v>       0.58333333       0.58333333       0.60253339 </v>
   <v>       0.08130935       0.33434529       0.60320464 </v>
   <v>       0.08130935       0.83434529       0.60320464 </v>
   <v>       0.58130935       0.33434529       0.60320464 </v>
   <v>       0.58130935       0.83434529       0.60320464 </v>
   <v>       0.33434529       0.08130935       0.60320464 </v>
   <v>       0.33434529       0.58130935       0.60320464 </v>
   <v>       0.83434529       0.08130935       0.60320464 </v>
   <v>       0.83434529       0.58130935       0.60320464 </v>
   <v>       0.33434529       0.33434529       0.60320464 </v>
   <v>       0.33434529       0.83434529       0.60320464 </v>
   <v>       0.83434529       0.33434529       0.60320464 </v>
   <v>       0.83434529       0.83434529       0.60320464 </v>
   <v>       0.49714648       0.49714648       0.68057248 </v>
   <v>       0.49714648       0.99714648       0.68057248 </v>
   <v>       0.99714648       0.49714648       0.68057248 </v>
   <v>       0.99714648       0.99714648       0.68057248 </v>
   <v>       0.49714648       0.25570704       0.68057248 </v>
   <v>       0.49714648       0.75570704       0.68057248 </v>
   <v>       0.99714648       0.25570704       0.68057248 </v>
   <v>       0.99714648       0.75570704       0.68057248 </v>
   <v>       0.25570704       0.49714648       0.68057248 </v>
   <v>       0.25570704       0.99714648       0.68057248 </v>
   <v>       0.75570704       0.49714648       0.68057248 </v>
   <v>       0.75570704       0.99714648       0.68057248 </v>
   <v>       0.25000000       0.25000000       0.67480871 </v>
   <v>       0.25000000       0.75000000       0.67480871 </v>
   <v>       0.75000000       0.25000000       0.67480871 </v>
   <v>       0.75000000       0.75000000       0.67480871 </v>
   <v>       0.08333333       0.08333333       0.72043888 </v>
   <v>       0.08333333       0.58333333       0.72043888 </v>
   <v>       0.58333333       0.08333333       0.72043888 </v>
   <v>       0.58333333       0.58333333       0.72043888 </v>
  </varray>
 </structure>
 <calculation>
  <scstep>
   <time name="dav">  160.79  160.90</time>
   <time name="total">  161.38  161.51</time>
   <energy>
    <i name="alphaZ">   6463.29446255 </i>
    <i name="ewald"> 664535.10948227 </i>
    <i name="hartreedc">-815290.05603632 </i>
    <i name="XCdc">   5009.43182920 </i>
    <i name="pawpsdc"> 122173.85035501 </i>
    <i name="pawaedc">-138312.01710912 </i>
    <i name="eentropy">     -0.02821678 </i>
    <i name="bandstr">   8852.91178983 </i>
    <i name="atom"> 157518.83071590 </i>
    <i name="e_fr_energy">  10951.32727255 </i>
    <i name="e_wo_entrp">  10951.35548933 </i>
    <i name="e_0_energy">  10951.34138094 </i>
   </energy>
  </scstep>
  <scstep>
   <time name="dav">  156.84  156.90</time>
   <time name="total">  156.86  156.92</time>
   <energy>
    <i name="e_fr_energy">   1074.18141572 </i>
    <i name="e_wo_entrp">   1074.22605781 </i>
    <i name="e_0_energy">   1074.20373676 </i>
   </energy>
  </scstep>
  <scstep>
   <time name="dav">  174.46  174.54</time>
   <time name="total">  174.49  174.56</time>
   <energy>
    <i name="e_fr_energy">   -373.58783582 </i>
    <i name="e_wo_entrp">   -373.52301156 </i>
    <i name="e_0_energy">   -373.55542369 </i>
   </energy>
  </scstep>
  <scstep>
   <time name="dav">  183.84  183.91</time>
   <time name="total">  183.86  183.94</time>
   <energy>
    <i name="e_fr_energy">   -524.81631226 </i>
    <i name="e_wo_entrp">   -524.75294591 </i>
    <i name="e_0_energy">   -524.78462908 </i>
   </energy>
  </scstep>
  <scstep>
   <time name="dav">  162.20  162.24</time>
   <time name="total">  167.61  167.66</time>
   <energy>
    <i name="e_fr_energy">   -530.86964316 </i>
    <i name="e_wo_entrp">   -530.80628481 </i>
    <i name="e_0_energy">   -530.83796399 </i>
   </energy>
  </scstep>
  <scstep>
   <time name="dav">  171.02  171.02</time>
   <time name="total">  176.09  176.10</time>
   <energy>
    <i name="e_fr_energy">   -478.09981695 </i>
    <i name="e_wo_entrp">   -478.04344383 </i>
    <i name="e_0_energy">   -478.07163039 </i>
   </energy>
  </scstep>
  <scstep>
   <time name="dav">  216.99  217.68</time>
   <time name="total">  222.79  223.51</time>
   <energy>
    <i name="e_fr_energy">   -511.40621471 </i>
    <i name="e_wo_entrp">   -511.28458475 </i>
    <i name="e_0_energy">   -511.34539973 </i>
   </energy>
  </scstep>
  <scstep>
   <time name="dav">  194.18  194.24</time>
   <time name="total">  199.19  199.28</time>
   <energy>
    <i name="e_fr_energy">   -444.91145766 </i>
    <i name="e_wo_entrp">   -444.82732795 </i>
    <i name="e_0_energy">   -444.86939281 </i>
   </energy>
  </scstep>
  <scstep>
   <time name="dav">  201.26  201.27</time>
   <time name="total">  206.30  206.31</time>
   <energy>
    <i name="e_fr_energy">   -428.53938762 </i>
    <i name="e_wo_entrp">   -428.50024040 </i>
    <i name="e_0_energy">   -428.51981401 </i>
   </energy>
  </scstep>
  <scstep>
   <time name="dav">  170.44  170.47</time>
   <time name="total">  189.76  189.81</time>
   <energy>
    <i name="e_fr_energy">   -429.30534286 </i>
    <i name="e_wo_entrp">   -429.25188569 </i>
    <i name="e_0_energy">   -429.27861427 </i>
   </energy>
  </scstep>
  <scstep>
   <time name="dav">  195.80  195.80</time>
   <time name="total">  204.30  204.33</time>
   <energy>
    <i name="e_fr_energy">   -427.93629899 </i>
    <i name="e_wo_entrp">   -427.86975904 </i>
    <i name="e_0_energy">   -427.90302902 </i>
   </energy>
  </scstep>
  <scstep>
   <time name="dav">  182.89  182.91</time>
   <time name="total">  187.98  188.03</time>
   <energy>
    <i name="e_fr_energy">   -427.70069383 </i>
    <i name="e_wo_entrp">   -427.64576235 </i>
    <i name="e_0_energy">   -427.67322809 </i>
   </energy>
  </scstep>
  <scstep>
   <time name="dav">  167.52  167.67</time>
   <time name="total">  204.70  208.80</time>
   <energy>
    <i name="e_fr_energy">   -427.64635622 </i>
    <i name="e_wo_entrp">   -427.59158866 </i>
    <i name="e_0_energy">   -427.61897244 </i>
   </energy>
  </scstep>
  <scstep>
   <time name="dav">  175.90  175.91</time>
   <time name="total">  180.89  180.90</time>
   <energy>
    <i name="e_fr_energy">   -427.54155778 </i>
    <i name="e_wo_entrp">   -427.49230542 </i>
    <i name="e_0_energy">   -427.51693160 </i>
   </energy>
  </scstep>
  <scstep>
   <time name="dav">  170.84  170.85</time>
   <time name="total">  175.81  175.82</time>
   <energy>
    <i name="e_fr_energy">   -427.61243711 </i>
    <i name="e_wo_entrp">   -427.56393106 </i>
    <i name="e_0_energy">   -427.58818409 </i>
   </energy>
  </scstep>
  <scstep>
   <time name="dav">  164.80  164.81</time>
   <time name="total">  169.81  169.82</time>
   <energy>
    <i name="e_fr_energy">   -427.51300890 </i>
    <i name="e_wo_entrp">   -427.46337020 </i>
    <i name="e_0_energy">   -427.48818955 </i>
   </energy>
  </scstep>
  <scstep>
   <time name="dav">  172.78  173.05</time>
   <time name="total">  177.78  178.04</time>
   <energy>
    <i name="e_fr_energy">   -427.47907023 </i>
    <i name="e_wo_entrp">   -427.42785715 </i>
    <i name="e_0_energy">   -427.45346369 </i>
   </energy>
  </scstep>
  <scstep>
   <time name="dav">  188.39  188.40</time>
   <time name="total">  193.35  193.37</time>
   <energy>
    <i name="e_fr_energy">   -427.46521612 </i>
    <i name="e_wo_entrp">   -427.41267308 </i>
    <i name="e_0_energy">   -427.43894460 </i>
   </energy>
  </scstep>
  <scstep>
   <time name="dav">  174.59  174.61</time>
   <time name="total">  179.79  179.81</time>
   <energy>
    <i name="e_fr_energy">   -427.46510674 </i>
    <i name="e_wo_entrp">   -427.41200470 </i>
    <i name="e_0_energy">   -427.43855572 </i>
   </energy>
  </scstep>
  <scstep>
   <time name="dav">  159.56  159.57</time>
   <time name="total">  164.54  164.55</time>
   <energy>
    <i name="e_fr_energy">   -427.46558271 </i>
    <i name="e_wo_entrp">   -427.41228822 </i>
    <i name="e_0_energy">   -427.43893546 </i>
   </energy>
  </scstep>
  <scstep>
   <time name="dav">  159.26  159.66</time>
   <time name="total">  164.25  164.65</time>
   <energy>
    <i name="e_fr_energy">   -427.46601871 </i>
    <i name="e_wo_entrp">   -427.41243752 </i>
    <i name="e_0_energy">   -427.43922811 </i>
   </energy>
  </scstep>
  <scstep>
   <time name="dav">  162.19  162.23</time>
   <time name="total">  169.15  169.19</time>
   <energy>
    <i name="e_fr_energy">   -427.46605152 </i>
    <i name="e_wo_entrp">   -427.41272107 </i>
    <i name="e_0_energy">   -427.43938629 </i>
   </energy>
  </scstep>
  <scstep>
   <time name="dav">  159.31  159.36</time>
   <time name="total">  164.30  164.35</time>
   <energy>
    <i name="e_fr_energy">   -427.46607618 </i>
    <i name="e_wo_entrp">   -427.41277461 </i>
    <i name="e_0_energy">   -427.43942539 </i>
   </energy>
  </scstep>
  <scstep>
   <time name="dav">  160.39  160.44</time>
   <time name="total">  165.37  165.42</time>
   <energy>
    <i name="e_fr_energy">   -427.46621247 </i>
    <i name="e_wo_entrp">   -427.41290094 </i>
    <i name="e_0_energy">   -427.43955670 </i>
   </energy>
  </scstep>
  <scstep>
   <time name="dav">  166.49  166.57</time>
   <time name="total">  173.29  173.37</time>
   <energy>
    <i name="e_fr_energy">   -427.46636687 </i>
    <i name="e_wo_entrp">   -427.41309272 </i>
    <i name="e_0_energy">   -427.43972979 </i>
   </energy>
  </scstep>
  <scstep>
   <time name="dav">  175.87  175.93</time>
   <time name="total">  182.93  182.98</time>
   <energy>
    <i name="e_fr_energy">   -427.46661252 </i>
    <i name="e_wo_entrp">   -427.41333828 </i>
    <i name="e_0_energy">   -427.43997540 </i>
   </energy>
  </scstep>
  <scstep>
   <time name="dav">  157.80  157.85</time>
   <time name="total">  162.79  162.84</time>
   <energy>
    <i name="e_fr_energy">   -427.46685771 </i>
    <i name="e_wo_entrp">   -427.41358608 </i>
    <i name="e_0_energy">   -427.44022190 </i>
   </energy>
  </scstep>
  <scstep>
   <time name="dav">  160.14  160.19</time>
   <time name="total">  165.12  165.17</time>
   <energy>
    <i name="e_fr_energy">   -427.46703550 </i>
    <i name="e_wo_entrp">   -427.41377639 </i>
    <i name="e_0_energy">   -427.44040595 </i>
   </energy>
  </scstep>
  <scstep>
   <time name="dav">  155.99  156.07</time>
   <time name="total">  163.05  163.13</time>
   <energy>
    <i name="e_fr_energy">   -427.46716287 </i>
    <i name="e_wo_entrp">   -427.41391571 </i>
    <i name="e_0_energy">   -427.44053929 </i>
   </energy>
  </scstep>
  <scstep>
   <time name="dav">  152.27  152.33</time>
   <time name="total">  157.32  157.39</time>
   <energy>
    <i name="e_fr_energy">   -427.46726518 </i>
    <i name="e_wo_entrp">   -427.41402254 </i>
    <i name="e_0_energy">   -427.44064386 </i>
   </energy>
  </scstep>
  <scstep>
   <time name="dav">  146.06  146.15</time>
   <time name="total">  152.69  152.79</time>
   <energy>
    <i name="e_fr_energy">   -427.46736369 </i>
    <i name="e_wo_entrp">   -427.41411403 </i>
    <i name="e_0_energy">   -427.44073886 </i>
   </energy>
  </scstep>
  <scstep>
   <time name="dav">  152.58  152.62</time>
   <time name="total">  157.58  157.63</time>
   <energy>
    <i name="e_fr_energy">   -427.46743516 </i>
    <i name="e_wo_entrp">   -427.41416815 </i>
    <i name="e_0_energy">   -427.44080165 </i>
   </energy>
  </scstep>
  <scstep>
   <time name="dav">  130.94  130.98</time>
   <time name="total">  135.92  135.96</time>
   <energy>
    <i name="e_fr_energy">   -427.46746803 </i>
    <i name="e_wo_entrp">   -427.41419671 </i>
    <i name="e_0_energy">   -427.44083237 </i>
   </energy>
  </scstep>
  <scstep>
   <time name="dav">  119.64  119.74</time>
   <time name="total">  124.64  124.74</time>
   <energy>
    <i name="e_fr_energy">   -427.46748544 </i>
    <i name="e_wo_entrp">   -427.41421718 </i>
    <i name="e_0_energy">   -427.44085131 </i>
   </energy>
  </scstep>
  <scstep>
   <time name="dav">  114.73  114.77</time>
   <time name="total">  119.72  119.76</time>
   <energy>
    <i name="e_fr_energy">   -427.46750884 </i>
    <i name="e_wo_entrp">   -427.41424824 </i>
    <i name="e_0_energy">   -427.44087854 </i>
   </energy>
  </scstep>
  <scstep>
   <time name="dav">  112.95  112.98</time>
   <time name="total">  117.94  117.97</time>
   <energy>
    <i name="e_fr_energy">   -427.46751691 </i>
    <i name="e_wo_entrp">   -427.41425911 </i>
    <i name="e_0_energy">   -427.44088801 </i>
   </energy>
  </scstep>
  <scstep>
   <time name="dav">  110.27  110.29</time>
   <time name="total">  117.00  117.03</time>
   <energy>
    <i name="e_fr_energy">   -427.46752616 </i>
    <i name="e_wo_entrp">   -427.41426734 </i>
    <i name="e_0_energy">   -427.44089675 </i>
   </energy>
  </scstep>
  <scstep>
   <time name="dav">  108.08  108.12</time>
   <time name="total">  113.20  113.24</time>
   <energy>
    <i name="e_fr_energy">   -427.46752884 </i>
    <i name="e_wo_entrp">   -427.41426895 </i>
    <i name="e_0_energy">   -427.44089890 </i>
   </energy>
  </scstep>
  <scstep>
   <time name="dav">  111.10  111.14</time>
   <time name="total">  116.12  116.16</time>
   <energy>
    <i name="e_fr_energy">   -427.46753127 </i>
    <i name="e_wo_entrp">   -427.41427070 </i>
    <i name="e_0_energy">   -427.44090099 </i>
   </energy>
  </scstep>
  <scstep>
   <time name="dav">  112.30  112.32</time>
   <time name="total">  117.28  117.31</time>
   <energy>
    <i name="e_fr_energy">   -427.46753233 </i>
    <i name="e_wo_entrp">   -427.41427148 </i>
    <i name="e_0_energy">   -427.44090191 </i>
   </energy>
  </scstep>
  <scstep>
   <time name="dav">  113.01  113.05</time>
   <time name="total">  113.50  113.54</time>
   <energy>
    <i name="alphaZ">   6463.29446255 </i>
    <i name="ewald"> 664535.10948227 </i>
    <i name="hartreedc">-813326.17118416 </i>
    <i name="XCdc">   4896.82978512 </i>
    <i name="pawpsdc"> 123759.68027120 </i>
    <i name="pawaedc">-139976.73134689 </i>
    <i name="eentropy">     -0.05326124 </i>
    <i name="bandstr">  -4298.25645794 </i>
    <i name="atom"> 157518.83071590 </i>
    <i name="e_fr_energy">   -427.46753320 </i>
    <i name="e_wo_entrp">   -427.41427196 </i>
    <i name="e_0_energy">   -427.44090258 </i>
   </energy>
  </scstep>
  <structure>
   <crystal>
    <varray name="basis" >
     <v>      10.28518105       0.00000000       0.00000000 </v>
     <v>       5.14259052       8.90722807       0.00000000 </v>
     <v>       0.00000000       0.00000000      27.79016876 </v>
    </varray>
    <i name="volume">   2545.92553775 </i>
    <varray name="rec_basis" >
     <v>       0.09722726      -0.05613419       0.00000000 </v>
     <v>       0.00000000       0.11226837       0.00000000 </v>
     <v>       0.00000000       0.00000000       0.03598395 </v>
    </varray>
   </crystal>
   <varray name="positions" >
    <v>       0.00000000       0.00000000       0.22663990 </v>
    <v>       0.00000000       0.50000000       0.22663990 </v>
    <v>       0.50000000       0.00000000       0.22663990 </v>
    <v>       0.50000000       0.50000000       0.22663990 </v>
    <v>       0.00000000       0.25000000       0.22663990 </v>
    <v>       0.00000000       0.75000000       0.22663990 </v>
    <v>       0.50000000       0.25000000       0.22663990 </v>
    <v>       0.50000000       0.75000000       0.22663990 </v>
    <v>       0.25000000       0.00000000       0.22663990 </v>
    <v>       0.25000000       0.50000000       0.22663990 </v>
    <v>       0.75000000       0.00000000       0.22663990 </v>
    <v>       0.75000000       0.50000000       0.22663990 </v>
    <v>       0.25000000       0.25000000       0.22663990 </v>
    <v>       0.25000000       0.75000000       0.22663990 </v>
    <v>       0.75000000       0.25000000       0.22663990 </v>
    <v>       0.75000000       0.75000000       0.22663990 </v>
    <v>       0.16666666       0.16666666       0.30218653 </v>
    <v>       0.16666666       0.66666666       0.30218653 </v>
    <v>       0.66666666       0.16666666       0.30218653 </v>
    <v>       0.66666666       0.66666666       0.30218653 </v>
    <v>       0.16666666       0.41666666       0.30218653 </v>
    <v>       0.16666666       0.91666666       0.30218653 </v>
    <v>       0.66666666       0.41666666       0.30218653 </v>
    <v>       0.66666666       0.91666666       0.30218653 </v>
    <v>       0.41666666       0.16666666       0.30218653 </v>
    <v>       0.41666666       0.66666666       0.30218653 </v>
    <v>       0.91666666       0.16666666       0.30218653 </v>
    <v>       0.91666666       0.66666666       0.30218653 </v>
    <v>       0.41666666       0.41666666       0.30218653 </v>
    <v>       0.41666666       0.91666666       0.30218653 </v>
    <v>       0.91666666       0.41666666       0.30218653 </v>
    <v>       0.91666666       0.91666666       0.30218653 </v>
    <v>       0.08333333       0.08333333       0.37716320 </v>
    <v>       0.08333333       0.58333333       0.37716320 </v>
    <v>       0.58333333       0.08333333       0.37716320 </v>
    <v>       0.58333333       0.58333333       0.37716320 </v>
    <v>       0.08351614       0.33324190       0.37729758 </v>
    <v>       0.08351614       0.83324190       0.37729758 </v>
    <v>       0.58351614       0.33324190       0.37729758 </v>
    <v>       0.58351614       0.83324190       0.37729758 </v>
    <v>       0.33324190       0.08351614       0.37729758 </v>
    <v>       0.33324190       0.58351614       0.37729758 </v>
    <v>       0.83324190       0.08351614       0.37729758 </v>
    <v>       0.83324190       0.58351614       0.37729758 </v>
    <v>       0.33324190       0.33324190       0.37729758 </v>
    <v>       0.33324190       0.83324190       0.37729758 </v>
    <v>       0.83324190       0.33324190       0.37729758 </v>
    <v>       0.83324190       0.83324190       0.37729758 </v>
    <v>       0.00012997       0.00012997       0.45242342 </v>
    <v>       0.00012997       0.50012997       0.45242342 </v>
    <v>       0.50012997       0.00012997       0.45242342 </v>
    <v>       0.50012997       0.50012997       0.45242342 </v>
    <v>       0.00012997       0.24974005       0.45242342 </v>
    <v>       0.00012997       0.74974005       0.45242342 </v>
    <v>       0.50012997       0.24974005       0.45242342 </v>
    <v>       0.50012997       0.74974005       0.45242342 </v>
    <v>       0.24974005       0.00012997       0.45242342 </v>
    <v>       0.24974005       0.50012997       0.45242342 </v>
    <v>       0.74974005       0.00012997       0.45242342 </v>
    <v>       0.74974005       0.50012997       0.45242342 </v>
    <v>       0.25000000       0.25000000       0.45288750 </v>
    <v>       0.25000000       0.75000000       0.45288750 </v>
    <v>       0.75000000       0.25000000       0.45288750 </v>
    <v>       0.75000000       0.75000000       0.45288750 </v>
    <v>       0.16660598       0.16660598       0.52813907 </v>
    <v>       0.16660598       0.66660598       0.52813907 </v>
    <v>       0.66660598       0.16660598       0.52813907 </v>
    <v>       0.66660598       0.66660598       0.52813907 </v>
    <v>       0.16660598       0.41678801       0.52813907 </v>
    <v>       0.16660598       0.91678801       0.52813907 </v>
    <v>       0.66660598       0.41678801       0.52813907 </v>
    <v>       0.66660598       0.91678801       0.52813907 </v>
    <v>       0.41678801       0.16660598       0.52813907 </v>
    <v>       0.41678801       0.66660598       0.52813907 </v>
    <v>       0.91678801       0.16660598       0.52813907 </v>
    <v>       0.91678801       0.66660598       0.52813907 </v>
    <v>       0.41666666       0.41666666       0.52741939 </v>
    <v>       0.41666666       0.91666666       0.52741939 </v>
    <v>       0.91666666       0.41666666       0.52741939 </v>
    <v>       0.91666666       0.91666666       0.52741939 </v>
    <v>       0.08470833       0.08333333       0.60304228 </v>
    <v>       0.08333333       0.58333333       0.60253339 </v>
    <v>       0.58333333       0.08333333       0.60253339 </v>
    <v>       0.58333333       0.58333333       0.60253339 </v>
    <v>       0.08130935       0.33434529       0.60320464 </v>
    <v>       0.08130935       0.83434529       0.60320464 </v>
    <v>       0.58130935       0.33434529       0.60320464 </v>
    <v>       0.58130935       0.83434529       0.60320464 </v>
    <v>       0.33434529       0.08130935       0.60320464 </v>
    <v>       0.33434529       0.58130935       0.60320464 </v>
    <v>       0.83434529       0.08130935       0.60320464 </v>
    <v>       0.83434529       0.58130935       0.60320464 </v>
    <v>       0.33434529       0.33434529       0.60320464 </v>
    <v>       0.33434529       0.83434529       0.60320464 </v>
    <v>       0.83434529       0.33434529       0.60320464 </v>
    <v>       0.83434529       0.83434529       0.60320464 </v>
    <v>       0.49714648       0.49714648       0.68057248 </v>
    <v>       0.49714648       0.99714648       0.68057248 </v>
    <v>       0.99714648       0.49714648       0.68057248 </v>
    <v>       0.99714648       0.99714648       0.68057248 </v>
    <v>       0.49714648       0.25570704       0.68057248 </v>
    <v>       0.49714648       0.75570704       0.68057248 </v>
    <v>       0.99714648       0.25570704       0.68057248 </v>
    <v>       0.99714648       0.75570704       0.68057248 </v>
    <v>       0.25570704       0.49714648       0.68057248 </v>
    <v>       0.25570704       0.99714648       0.68057248 </v>
    <v>       0.75570704       0.49714648       0.68057248 </v>
    <v>       0.75570704       0.99714648       0.68057248 </v>
    <v>       0.25000000       0.25000000       0.67480871 </v>
    <v>       0.25000000       0.75000000       0.67480871 </v>
    <v>       0.75000000       0.25000000       0.67480871 </v>
    <v>       0.75000000       0.75000000       0.67480871 </v>
    <v>       0.08333333       0.08333333       0.72043888 </v>
    <v>       0.08333333       0.58333333       0.72043888 </v>
    <v>       0.58333333       0.08333333       0.72043888 </v>
    <v>       0.58333333       0.58333333       0.72043888 </v>
   </varray>
  </structure>
  <varray name="forces" >
   <v>       0.00787563       0.00453134       0.07166024 </v>
   <v>       0.00787235       0.00456461       0.07165610 </v>
   <v>       0.00789687       0.00452976       0.07165404 </v>
   <v>       0.00784378       0.00450320       0.07174448 </v>
   <v>       0.00002742      -0.00912476       0.07167060 </v>
   <v>       0.00005958      -0.00908535       0.07167515 </v>
   <v>       0.00004477      -0.00909673       0.07168605 </v>
   <v>      -0.00003855      -0.00909393       0.07167050 </v>
   <v>      -0.00792636       0.00459230       0.07167884 </v>
   <v>      -0.00791145       0.00459404       0.07163051 </v>
   <v>      -0.00779439       0.00464460       0.07169288 </v>
   <v>      -0.00791750       0.00444089       0.07169028 </v>
   <v>      -0.00003497      -0.00005429       0.08633659 </v>
   <v>       0.00005848      -0.00001472       0.08632484 </v>
   <v>      -0.00006066       0.00006852       0.08631337 </v>
   <v>       0.00004889       0.00000059       0.08644920 </v>
   <v>       0.00705428       0.00402060      -0.07994479 </v>
   <v>       0.00687653       0.00407740      -0.07994191 </v>
   <v>       0.00702358       0.00396430      -0.07997462 </v>
   <v>       0.00690617       0.00394709      -0.07999313 </v>
   <v>       0.00001327      -0.00804432      -0.07995788 </v>
   <v>       0.00009099      -0.00805480      -0.07996020 </v>
   <v>      -0.00004847      -0.00818526      -0.08002320 </v>
   <v>       0.00006900      -0.00807359      -0.07993880 </v>
   <v>      -0.00700210       0.00419880      -0.08000811 </v>
   <v>      -0.00720847       0.00398153      -0.08004068 </v>
   <v>      -0.00689407       0.00403323      -0.07997644 </v>
   <v>      -0.00707646       0.00412512      -0.07988521 </v>
   <v>       0.00016209      -0.00000180      -0.05915712 </v>
   <v>       0.00016642      -0.00008997      -0.05917125 </v>
   <v>       0.00001239       0.00014142      -0.05919962 </v>
   <v>      -0.00007976      -0.00005426      -0.05922837 </v>
   <v>      -0.00008606       0.00000013       0.00009096 </v>
   <v>       0.00001963      -0.00000302      -0.00006800 </v>
   <v>       0.00001397      -0.00000995      -0.00006378 </v>
   <v>       0.00003628       0.00001310      -0.00005790 </v>
   <v>       0.00002039       0.00007864      -0.00011709 </v>
   <v>      -0.00005305      -0.00002222      -0.00007688 </v>
   <v>       0.00012332      -0.00000091       0.00003103 </v>
   <v>      -0.00007141       0.00008023       0.00005939 </v>
   <v>       0.00002126       0.00001247      -0.00008808 </v>
   <v>       0.00011671       0.00014467       0.00008081 </v>
   <v>       0.00003372      -0.00001341      -0.00000759 </v>
   <v>       0.00006305      -0.00005603       0.00003498 </v>
   <v>      -0.00012761      -0.00013815       0.00012740 </v>
   <v>      -0.00006005       0.00003957      -0.00002264 </v>
   <v>       0.00002649      -0.00008493       0.00001762 </v>
   <v>       0.00002425      -0.00001985       0.00000547 </v>
   <v>       0.00025270       0.00003952       0.00106756 </v>
   <v>       0.00006270       0.00014462       0.00003024 </v>
   <v>       0.00006158       0.00002971       0.00006030 </v>
   <v>       0.00005425      -0.00000143       0.00012723 </v>
   <v>       0.00018265      -0.00009035       0.00081430 </v>
   <v>      -0.00016172      -0.00017754      -0.00006743 </v>
   <v>       0.00005479      -0.00007876       0.00005408 </v>
   <v>      -0.00001887      -0.00006088      -0.00000784 </v>
   <v>       0.00009205       0.00005137       0.00056807 </v>
   <v>      -0.00008241       0.00007811      -0.00001198 </v>
   <v>      -0.00021836      -0.00003607      -0.00012897 </v>
   <v>      -0.00007343       0.00009848      -0.00009943 </v>
   <v>      -0.00018876      -0.00006445       0.00023499 </v>
   <v>      -0.00007421       0.00013459       0.00011612 </v>
   <v>       0.00004388      -0.00006648      -0.00000856 </v>
   <v>      -0.00015277       0.00000200       0.00017752 </v>
   <v>      -0.00660442      -0.00278944       0.00610927 </v>
   <v>       0.00003424       0.00057161       0.00017546 </v>
   <v>       0.00092810      -0.00034026       0.00043319 </v>
   <v>       0.00006838       0.00009146      -0.00005710 </v>
   <v>      -0.00010099       0.00017441      -0.00011605 </v>
   <v>      -0.00169429       0.01366766       0.01725254 </v>
   <v>       0.00066902      -0.00046503       0.00040476 </v>
   <v>      -0.00009386      -0.00007043      -0.00009334 </v>
   <v>       0.00029547      -0.00017517      -0.00015201 </v>
   <v>       0.00016478       0.00024119       0.00011112 </v>
   <v>       0.01691123      -0.01069850       0.02790261 </v>
   <v>      -0.00005617      -0.00002384      -0.00013205 </v>
   <v>      -0.00007677      -0.00000074      -0.00017044 </v>
   <v>      -0.00010101      -0.00013183      -0.00046827 </v>
   <v>      -0.00032176      -0.00040008      -0.00002853 </v>
   <v>       0.00058858       0.00052127       0.00041347 </v>
   <v>      -0.08663882      -0.00001684      -0.08198287 </v>
   <v>      -0.00006222       0.00010508      -0.00043296 </v>
   <v>       0.00011882       0.00001759      -0.00045033 </v>
   <v>      -0.00009913      -0.00012479      -0.00046696 </v>
   <v>       0.00497935       0.01122592      -0.00178629 </v>
   <v>       0.00507531       0.01072149      -0.00161117 </v>
   <v>       0.00062258      -0.00038293      -0.00025820 </v>
   <v>       0.00092239      -0.00046261      -0.00025724 </v>
   <v>       0.02513782      -0.00016694      -0.00181341 </v>
   <v>      -0.00003150       0.00007812      -0.00036896 </v>
   <v>       0.02300103       0.00026818      -0.00147217 </v>
   <v>       0.00012688       0.00028787      -0.00043078 </v>
   <v>       0.00050882       0.00030674      -0.00046667 </v>
   <v>       0.00523808      -0.01143735      -0.00164745 </v>
   <v>       0.00466120      -0.01063737      -0.00148108 </v>
   <v>       0.00043629       0.00017522      -0.00058532 </v>
   <v>      -0.00004163       0.00017770      -0.00068756 </v>
   <v>       0.00142981      -0.00094572      -0.00044595 </v>
   <v>      -0.00009481       0.00093114      -0.00057837 </v>
   <v>      -0.00360668      -0.00134677       0.00148093 </v>
   <v>      -0.00035459      -0.00005641      -0.00076011 </v>
   <v>       0.00113388      -0.00047059      -0.00047377 </v>
   <v>      -0.00132445       0.00712250       0.00808509 </v>
   <v>       0.00020930       0.00028691      -0.00074102 </v>
   <v>      -0.00014222      -0.00012549      -0.00081522 </v>
   <v>       0.00881948      -0.00588679       0.01504179 </v>
   <v>       0.00020893      -0.00004098      -0.00060982 </v>
   <v>       0.00079634       0.00022593      -0.00074448 </v>
   <v>       0.00040158       0.00038389      -0.00039548 </v>
   <v>      -0.00026239      -0.00020561      -0.00040513 </v>
   <v>       0.00005503      -0.00018222      -0.00041972 </v>
   <v>      -0.00021506       0.00000071      -0.00036417 </v>
   <v>      -0.00043434      -0.00000058       0.01009717 </v>
   <v>      -0.00006215      -0.00032323       0.00148062 </v>
   <v>      -0.00061188       0.00029025       0.00155034 </v>
   <v>      -0.00055585       0.00002738       0.00162788 </v>
  </varray>
  <varray name="stress" >
   <v>      -2.07253732      -0.00013653      -0.00817166 </v>
   <v>      -0.00013655      -2.07376571      -0.00041577 </v>
   <v>      -0.00817166      -0.00041574      -2.19038225 </v>
  </varray>
  <energy>
   <i name="e_fr_energy">   -427.46753320 </i>
   <i name="e_wo_entrp">   -427.44090258 </i>
   <i name="e_0_energy">     -0.05326124 </i>
  </energy>
  <time name="totalsc"> 7006.16 7013.46</time>
  <eigenvalues>
   <array>
    <dimension dim="1">band</dimension>
    <dimension dim="2">kpoint</dimension>
    <dimension dim="3">spin</dimension>
    <field>eigene</field>
    <field>occ</field>
    <set>
     <set comment="spin 1">
      <set comment="kpoint 1">
       <r>  -18.6067    1.0000 </r>
       <r>  -18.5941    1.0000 </r>
       <r>  -18.5937    1.0000 </r>
       <r>  -18.5936    1.0000 </r>
       <r>   -9.4524    1.0000 </r>
       <r>   -8.9602    1.0000 </r>
       <r>   -8.1741    1.0000 </r>
       <r>   -7.5993    1.0000 </r>
       <r>   -7.5988    1.0000 </r>
       <r>   -7.5984    1.0000 </r>
       <r>   -7.5771    1.0000 </r>
       <r>   -7.5768    1.0000 </r>
       <r>   -7.5754    1.0000 </r>
       <r>   -7.2196    1.0000 </r>
       <r>   -7.2191    1.0000 </r>
       <r>   -7.2187    1.0000 </r>
       <r>   -7.2000    1.0000 </r>
       <r>   -7.1454    1.0000 </r>
       <r>   -7.1450    1.0000 </r>
       <r>   -7.1439    1.0000 </r>
       <r>   -6.6271    1.0000 </r>
       <r>   -6.6270    1.0000 </r>
       <r>   -6.6267    1.0000 </r>
       <r>   -6.4871    1.0000 </r>
       <r>   -6.4852    1.0000 </r>
       <r>   -6.4849    1.0000 </r>
       <r>   -6.2512    1.0000 </r>
       <r>   -5.9481    1.0000 </r>
       <r>   -5.9478    1.0000 </r>
       <r>   -5.9476    1.0000 </r>
       <r>   -5.7428    1.0000 </r>
       <r>   -5.7415    1.0000 </r>
       <r>   -5.7414    1.0000 </r>
       <r>   -5.6692    1.0000 </r>
       <r>   -5.6250    1.0000 </r>
       <r>   -5.6250    1.0000 </r>
       <r>   -5.4386    1.0000 </r>
       <r>   -5.4104    1.0000 </r>
       <r>   -5.4103    1.0000 </r>
       <r>   -5.4099    1.0000 </r>
       <r>   -5.3417    1.0000 </r>
       <r>   -5.3412    1.0000 </r>
       <r>   -5.3410    1.0000 </r>
       <r>   -5.3236    1.0000 </r>
       <r>   -5.2827    1.0000 </r>
       <r>   -5.2825    1.0000 </r>
       <r>   -5.2154    1.0000 </r>
       <r>   -5.2106    1.0000 </r>
       <r>   -5.2085    1.0000 </r>
       <r>   -5.2083    1.0000 </r>
       <r>   -5.1336    1.0000 </r>
       <r>   -5.1333    1.0000 </r>
       <r>   -5.1230    1.0000 </r>
       <r>   -5.0552    1.0000 </r>
       <r>   -5.0331    1.0000 </r>
       <r>   -5.0330    1.0000 </r>
       <r>   -5.0034    1.0000 </r>
       <r>   -5.0032    1.0000 </r>
       <r>   -5.0017    1.0000 </r>
       <r>   -4.9774    1.0000 </r>
       <r>   -4.9770    1.0000 </r>
       <r>   -4.9766    1.0000 </r>
       <r>   -4.9617    1.0000 </r>
       <r>   -4.9616    1.0000 </r>
       <r>   -4.9564    1.0000 </r>
       <r>   -4.9562    1.0000 </r>
       <r>   -4.9560    1.0000 </r>
       <r>   -4.9352    1.0000 </r>
       <r>   -4.8822    1.0000 </r>
       <r>   -4.8816    1.0000 </r>
       <r>   -4.8815    1.0000 </r>
       <r>   -4.8533    1.0000 </r>
       <r>   -4.8530    1.0000 </r>
       <r>   -4.8528    1.0000 </r>
       <r>   -4.8404    1.0000 </r>
       <r>   -4.8247    1.0000 </r>
       <r>   -4.8246    1.0000 </r>
       <r>   -4.8128    1.0000 </r>
       <r>   -4.8115    1.0000 </r>
       <r>   -4.8112    1.0000 </r>
       <r>   -4.7489    1.0000 </r>
       <r>   -4.7488    1.0000 </r>
       <r>   -4.7486    1.0000 </r>
       <r>   -4.7061    1.0000 </r>
       <r>   -4.7059    1.0000 </r>
       <r>   -4.7054    1.0000 </r>
       <r>   -4.7019    1.0000 </r>
       <r>   -4.6940    1.0000 </r>
       <r>   -4.6939    1.0000 </r>
       <r>   -4.6219    1.0000 </r>
       <r>   -4.6214    1.0000 </r>
       <r>   -4.6209    1.0000 </r>
       <r>   -4.5860    1.0000 </r>
       <r>   -4.5857    1.0000 </r>
       <r>   -4.5855    1.0000 </r>
       <r>   -4.5813    1.0000 </r>
       <r>   -4.5778    1.0000 </r>
       <r>   -4.5778    1.0000 </r>
       <r>   -4.5453    1.0000 </r>
       <r>   -4.5387    1.0000 </r>
       <r>   -4.5386    1.0000 </r>
       <r>   -4.5380    1.0000 </r>
       <r>   -4.5379    1.0000 </r>
       <r>   -4.5376    1.0000 </r>
       <r>   -4.5277    1.0000 </r>
       <r>   -4.5276    1.0000 </r>
       <r>   -4.5276    1.0000 </r>
       <r>   -4.5036    1.0000 </r>
       <r>   -4.5034    1.0000 </r>
       <r>   -4.5031    1.0000 </r>
       <r>   -4.4602    1.0000 </r>
       <r>   -4.4602    1.0000 </r>
       <r>   -4.4602    1.0000 </r>
       <r>   -4.4543    1.0000 </r>
       <r>   -4.4543    1.0000 </r>
       <r>   -4.4542    1.0000 </r>
       <r>   -4.4466    1.0000 </r>
       <r>   -4.4463    1.0000 </r>
       <r>   -4.4457    1.0000 </r>
       <r>   -4.4071    1.0000 </r>
       <r>   -4.4066    1.0000 </r>
       <r>   -4.4053    1.0000 </r>
       <r>   -4.3892    1.0000 </r>
       <r>   -4.3890    1.0000 </r>
       <r>   -4.3497    1.0000 </r>
       <r>   -4.3494    1.0000 </r>
       <r>   -4.3486    1.0000 </r>
       <r>   -4.3373    1.0000 </r>
       <r>   -4.2427    1.0000 </r>
       <r>   -4.2426    1.0000 </r>
       <r>   -4.2289    1.0000 </r>
       <r>   -4.2283    1.0000 </r>
       <r>   -4.2279    1.0000 </r>
       <r>   -4.2196    1.0000 </r>
       <r>   -4.2193    1.0000 </r>
       <r>   -4.2191    1.0000 </r>
       <r>   -4.2172    1.0000 </r>
       <r>   -4.2166    1.0000 </r>
       <r>   -4.2164    1.0000 </r>
       <r>   -4.2136    1.0000 </r>
       <r>   -4.2136    1.0000 </r>
       <r>   -4.2124    1.0000 </r>
       <r>   -4.2111    1.0000 </r>
       <r>   -4.2108    1.0000 </r>
       <r>   -4.2106    1.0000 </r>
       <r>   -4.1793    1.0000 </r>
       <r>   -4.1789    1.0000 </r>
       <r>   -4.1787    1.0000 </r>
       <r>   -4.0968    1.0000 </r>
       <r>   -4.0967    1.0000 </r>
       <r>   -4.0962    1.0000 </r>
       <r>   -4.0791    1.0000 </r>
       <r>   -4.0786    1.0000 </r>
       <r>   -4.0784    1.0000 </r>
       <r>   -4.0763    1.0000 </r>
       <r>   -4.0759    1.0000 </r>
       <r>   -4.0756    1.0000 </r>
       <r>   -4.0562    1.0000 </r>
       <r>   -4.0560    1.0000 </r>
       <r>   -4.0549    1.0000 </r>
       <r>   -4.0445    1.0000 </r>
       <r>   -4.0440    1.0000 </r>
       <r>   -4.0437    1.0000 </r>
       <r>   -4.0167    1.0000 </r>
       <r>   -4.0042    1.0000 </r>
       <r>   -4.0039    1.0000 </r>
       <r>   -4.0035    1.0000 </r>
       <r>   -3.9695    1.0000 </r>
       <r>   -3.9694    1.0000 </r>
       <r>   -3.9379    1.0000 </r>
       <r>   -3.9378    1.0000 </r>
       <r>   -3.9375    1.0000 </r>
       <r>   -3.9290    1.0000 </r>
       <r>   -3.9287    1.0000 </r>
       <r>   -3.9286    1.0000 </r>
       <r>   -3.9091    1.0000 </r>
       <r>   -3.9089    1.0000 </r>
       <r>   -3.9088    1.0000 </r>
       <r>   -3.8794    1.0000 </r>
       <r>   -3.8791    1.0000 </r>
       <r>   -3.8790    1.0000 </r>
       <r>   -3.8773    1.0000 </r>
       <r>   -3.8767    1.0000 </r>
       <r>   -3.8765    1.0000 </r>
       <r>   -3.8326    1.0000 </r>
       <r>   -3.8308    1.0000 </r>
       <r>   -3.8308    1.0000 </r>
       <r>   -3.8307    1.0000 </r>
       <r>   -3.8117    1.0000 </r>
       <r>   -3.8116    1.0000 </r>
       <r>   -3.8102    1.0000 </r>
       <r>   -3.7979    1.0000 </r>
       <r>   -3.7978    1.0000 </r>
       <r>   -3.7977    1.0000 </r>
       <r>   -3.7861    1.0000 </r>
       <r>   -3.7860    1.0000 </r>
       <r>   -3.7860    1.0000 </r>
       <r>   -3.7745    1.0000 </r>
       <r>   -3.7745    1.0000 </r>
       <r>   -3.7744    1.0000 </r>
       <r>   -3.7510    1.0000 </r>
       <r>   -3.7507    1.0000 </r>
       <r>   -3.7501    1.0000 </r>
       <r>   -3.7087    1.0000 </r>
       <r>   -3.7085    1.0000 </r>
       <r>   -3.7082    1.0000 </r>
       <r>   -3.7067    1.0000 </r>
       <r>   -3.7067    1.0000 </r>
       <r>   -3.7066    1.0000 </r>
       <r>   -3.6821    1.0000 </r>
       <r>   -3.6818    1.0000 </r>
       <r>   -3.6816    1.0000 </r>
       <r>   -3.6763    1.0000 </r>
       <r>   -3.6762    1.0000 </r>
       <r>   -3.6759    1.0000 </r>
       <r>   -3.6684    1.0000 </r>
       <r>   -3.6679    1.0000 </r>
       <r>   -3.6405    1.0000 </r>
       <r>   -3.6401    1.0000 </r>
       <r>   -3.6401    1.0000 </r>
       <r>   -3.6170    1.0000 </r>
       <r>   -3.6156    1.0000 </r>
       <r>   -3.6151    1.0000 </r>
       <r>   -3.6148    1.0000 </r>
       <r>   -3.6027    1.0000 </r>
       <r>   -3.6024    1.0000 </r>
       <r>   -3.6017    1.0000 </r>
       <r>   -3.6004    1.0000 </r>
       <r>   -3.6004    1.0000 </r>
       <r>   -3.6003    1.0000 </r>
       <r>   -3.5973    1.0000 </r>
       <r>   -3.5970    1.0000 </r>
       <r>   -3.5964    1.0000 </r>
       <r>   -3.5814    1.0000 </r>
       <r>   -3.5809    1.0000 </r>
       <r>   -3.5808    1.0000 </r>
       <r>   -3.5508    1.0000 </r>
       <r>   -3.5504    1.0000 </r>
       <r>   -3.5498    1.0000 </r>
       <r>   -3.5371    1.0000 </r>
       <r>   -3.5301    1.0000 </r>
       <r>   -3.5115    1.0000 </r>
       <r>   -3.5114    1.0000 </r>
       <r>   -3.4474    1.0000 </r>
       <r>   -3.4473    1.0000 </r>
       <r>   -3.4472    1.0000 </r>
       <r>   -3.4417    1.0000 </r>
       <r>   -3.4336    1.0000 </r>
       <r>   -3.4336    1.0000 </r>
       <r>   -3.4332    1.0000 </r>
       <r>   -3.4280    1.0000 </r>
       <r>   -3.4277    1.0000 </r>
       <r>   -3.4274    1.0000 </r>
       <r>   -3.4192    1.0000 </r>
       <r>   -3.4186    1.0000 </r>
       <r>   -3.4184    1.0000 </r>
       <r>   -3.4178    1.0000 </r>
       <r>   -3.4178    1.0000 </r>
       <r>   -3.4154    1.0000 </r>
       <r>   -3.4153    1.0000 </r>
       <r>   -3.4149    1.0000 </r>
       <r>   -3.4098    1.0000 </r>
       <r>   -3.3986    1.0000 </r>
       <r>   -3.3984    1.0000 </r>
       <r>   -3.3981    1.0000 </r>
       <r>   -3.3859    1.0000 </r>
       <r>   -3.3858    1.0000 </r>
       <r>   -3.3751    1.0000 </r>
       <r>   -3.3627    1.0000 </r>
       <r>   -3.3626    1.0000 </r>
       <r>   -3.3616    1.0000 </r>
       <r>   -3.3491    1.0000 </r>
       <r>   -3.3490    1.0000 </r>
       <r>   -3.3470    1.0000 </r>
       <r>   -3.3466    1.0000 </r>
       <r>   -3.3466    1.0000 </r>
       <r>   -3.3358    1.0000 </r>
       <r>   -3.3356    1.0000 </r>
       <r>   -3.3354    1.0000 </r>
       <r>   -3.3147    1.0000 </r>
       <r>   -3.3146    1.0000 </r>
       <r>   -3.3051    1.0000 </r>
       <r>   -3.3043    1.0000 </r>
       <r>   -3.3041    1.0000 </r>
[...]
       <r>   -14.5223     0.0000     8.0000 </r>
       <r>   -14.4282     0.0000     8.0000 </r>
       <r>   -14.3340     0.0000     8.0000 </r>
       <r>   -14.2398     0.0000     8.0000 </r>
       <r>   -14.1456     0.0000     8.0000 </r>
       <r>   -14.0514     0.0000     8.0000 </r>
       <r>   -13.9572     0.0000     8.0000 </r>
       <r>   -13.8630     0.0000     8.0000 </r>
       <r>   -13.7688     0.0000     8.0000 </r>
       <r>   -13.6746     0.0000     8.0000 </r>
       <r>   -13.5804     0.0000     8.0000 </r>
       <r>   -13.4863     0.0000     8.0000 </r>
       <r>   -13.3921     0.0000     8.0000 </r>
       <r>   -13.2979     0.0000     8.0000 </r>
       <r>   -13.2037     0.0000     8.0000 </r>
       <r>   -13.1095     0.0000     8.0000 </r>
       <r>   -13.0153     0.0000     8.0000 </r>
       <r>   -12.9211     0.0000     8.0000 </r>
       <r>   -12.8269     0.0000     8.0000 </r>
       <r>   -12.7327     0.0000     8.0000 </r>
       <r>   -12.6386     0.0000     8.0000 </r>
       <r>   -12.5444     0.0000     8.0000 </r>
       <r>   -12.4502     0.0000     8.0000 </r>
       <r>   -12.3560     0.0000     8.0000 </r>
       <r>   -12.2618     0.0000     8.0000 </r>
       <r>   -12.1676     0.0000     8.0000 </r>
       <r>   -12.0734     0.0000     8.0000 </r>
       <r>   -11.9792     0.0000     8.0000 </r>
       <r>   -11.8850     0.0000     8.0000 </r>
       <r>   -11.7908     0.0000     8.0000 </r>
       <r>   -11.6967     0.0000     8.0000 </r>
       <r>   -11.6025     0.0000     8.0000 </r>
       <r>   -11.5083     0.0000     8.0000 </r>
       <r>   -11.4141     0.0000     8.0000 </r>
       <r>   -11.3199     0.0000     8.0000 </r>
       <r>   -11.2257     0.0000     8.0000 </r>
       <r>   -11.1315     0.0000     8.0000 </r>
       <r>   -11.0373     0.0000     8.0000 </r>
       <r>   -10.9431     0.0000     8.0000 </r>
       <r>   -10.8490     0.0000     8.0000 </r>
       <r>   -10.7548     0.0000     8.0000 </r>
       <r>   -10.6606     0.0000     8.0000 </r>
       <r>   -10.5664     0.0000     8.0000 </r>
       <r>   -10.4722     0.0000     8.0000 </r>
       <r>   -10.3780     0.0000     8.0000 </r>
       <r>   -10.2838     0.0000     8.0000 </r>
       <r>   -10.1896     0.0000     8.0000 </r>
       <r>   -10.0954     0.0000     8.0000 </r>
       <r>   -10.0012     0.0000     8.0000 </r>
       <r>    -9.9071     0.0000     8.0000 </r>
       <r>    -9.8129     0.0000     8.0000 </r>
       <r>    -9.7187     0.0000     8.0000 </r>
       <r>    -9.6245     0.0000     8.0000 </r>
       <r>    -9.5303     0.0183     8.0017 </r>
       <r>    -9.4361     0.8904     8.0856 </r>
       <r>    -9.3419     3.2282     8.3897 </r>
       <r>    -9.2477     5.0645     8.8667 </r>
       <r>    -9.1535     0.2747     8.8926 </r>
       <r>    -9.0594     5.8163     9.4404 </r>
       <r>    -8.9652     6.2363    10.0278 </r>
       <r>    -8.8710     6.4774    10.6379 </r>
       <r>    -8.7768     6.2036    11.2222 </r>
       <r>    -8.6826     0.5773    11.2766 </r>
       <r>    -8.5884    15.3915    12.7263 </r>
       <r>    -8.4942    11.3584    13.7961 </r>
       <r>    -8.4000     6.2641    14.3861 </r>
       <r>    -8.3058     6.2216    14.9721 </r>
       <r>    -8.2116     0.8156    15.0490 </r>
       <r>    -8.1175    12.8616    16.2604 </r>
       <r>    -8.0233    14.5912    17.6347 </r>
       <r>    -7.9291    13.1526    18.8736 </r>
       <r>    -7.8349    19.7550    20.7343 </r>
       <r>    -7.7407     6.8950    21.3837 </r>
       <r>    -7.6465     5.9425    21.9434 </r>
       <r>    -7.5523    13.0147    23.1693 </r>
       <r>    -7.4581    15.8166    24.6591 </r>
       <r>    -7.3639    16.4936    26.2126 </r>
       <r>    -7.2698     8.7320    27.0350 </r>
       <r>    -7.1756    20.6673    28.9817 </r>
       <r>    -7.0814    16.1799    30.5056 </r>
       <r>    -6.9872    13.3179    31.7601 </r>
       <r>    -6.8930    16.7173    33.3346 </r>
       <r>    -6.7988    31.7518    36.3253 </r>
       <r>    -6.7046    15.1433    37.7517 </r>
       <r>    -6.6104    18.4620    39.4906 </r>
       <r>    -6.5162    13.4316    40.7557 </r>
       <r>    -6.4220    24.3261    43.0470 </r>
       <r>    -6.3279    23.7658    45.2855 </r>
       <r>    -6.2337    18.7064    47.0474 </r>
       <r>    -6.1395    46.5722    51.4340 </r>
       <r>    -6.0453    21.0945    53.4209 </r>
       <r>    -5.9511    45.9412    57.7481 </r>
       <r>    -5.8569    21.1110    59.7365 </r>
       <r>    -5.7627    20.6211    61.6788 </r>
       <r>    -5.6685    59.8282    67.3140 </r>
       <r>    -5.5743    86.9974    75.5082 </r>
       <r>    -5.4802    73.9611    82.4746 </r>
       <r>    -5.3860    60.4632    88.1696 </r>
       <r>    -5.2918    94.8971    97.1079 </r>
       <r>    -5.1976    89.5352   105.5411 </r>
       <r>    -5.1034   107.8001   115.6948 </r>
       <r>    -5.0092   119.1351   126.9160 </r>
       <r>    -4.9150   145.3873   140.6100 </r>
       <r>    -4.8208   127.6664   152.6348 </r>
       <r>    -4.7266   126.7936   164.5774 </r>
       <r>    -4.6324   165.8994   180.2034 </r>
       <r>    -4.5383   204.5610   199.4709 </r>
       <r>    -4.4441   241.1287   222.1827 </r>
       <r>    -4.3499   284.6718   248.9958 </r>
       <r>    -4.2557   253.8350   272.9043 </r>
       <r>    -4.1615   219.7188   293.5995 </r>
       <r>    -4.0673   206.6307   313.0620 </r>
       <r>    -3.9731   219.4279   333.7298 </r>
       <r>    -3.8789   272.8492   359.4293 </r>
       <r>    -3.7847   278.5113   385.6621 </r>
       <r>    -3.6906   321.6772   415.9607 </r>
       <r>    -3.5964   318.4570   445.9560 </r>
       <r>    -3.5022   325.0861   476.5757 </r>
       <r>    -3.4080   393.0260   513.5946 </r>
       <r>    -3.3138   477.6699   558.5861 </r>
       <r>    -3.2196   505.5393   606.2025 </r>
       <r>    -3.1254   438.5684   647.5111 </r>
       <r>    -3.0312   452.2425   690.1075 </r>
       <r>    -2.9370   326.0561   720.8186 </r>
       <r>    -2.8428   362.6600   754.9773 </r>
       <r>    -2.7487   346.8223   787.6443 </r>
       <r>    -2.6545   410.0456   826.2663 </r>
       <r>    -2.5603   409.6168   864.8479 </r>
       <r>    -2.4661   389.0063   901.4882 </r>
       <r>    -2.3719   429.5132   941.9438 </r>
       <r>    -2.2777   419.7539   981.4802 </r>
       <r>    -2.1835   440.6164  1022.9816 </r>
       <r>    -2.0893   530.5019  1072.9493 </r>
       <r>    -1.9951   616.0373  1130.9735 </r>
       <r>    -1.9010   434.6125  1171.9095 </r>
       <r>    -1.8068   162.1647  1187.1837 </r>
       <r>    -1.7126    69.4738  1193.7274 </r>
       <r>    -1.6184    52.2872  1198.6523 </r>
       <r>    -1.5242    58.6061  1204.1723 </r>
       <r>    -1.4300    59.3068  1209.7584 </r>
       <r>    -1.3358    89.6409  1218.2016 </r>
       <r>    -1.2416    59.3027  1223.7873 </r>
       <r>    -1.1474    35.9435  1227.1728 </r>
       <r>    -1.0532    11.6016  1228.2656 </r>
       <r>    -0.9591    47.8015  1232.7680 </r>
       <r>    -0.8649    37.9797  1236.3453 </r>
       <r>    -0.7707    43.9489  1240.4848 </r>
       <r>    -0.6765    47.0074  1244.9124 </r>
       <r>    -0.5823    58.1638  1250.3908 </r>
       <r>    -0.4881    20.2429  1252.2975 </r>
       <r>    -0.3939    34.8731  1255.5822 </r>
       <r>    -0.2997    37.5774  1259.1215 </r>
       <r>    -0.2055    41.2174  1263.0038 </r>
       <r>    -0.1114    23.6710  1265.2334 </r>
       <r>    -0.0172    35.1351  1268.5427 </r>
       <r>     0.0770    48.6285  1273.1230 </r>
       <r>     0.1712    42.4365  1277.1201 </r>
       <r>     0.2654    13.0330  1278.3476 </r>
       <r>     0.3596    25.5129  1280.7507 </r>
       <r>     0.4538    43.3396  1284.8328 </r>
       <r>     0.5480    34.1087  1288.0455 </r>
       <r>     0.6422    28.5636  1290.7359 </r>
       <r>     0.7364    54.2137  1295.8423 </r>
       <r>     0.8305    35.3928  1299.1759 </r>
       <r>     0.9247    31.3625  1302.1299 </r>
       <r>     1.0189    29.1576  1304.8762 </r>
       <r>     1.1131    29.0930  1307.6165 </r>
       <r>     1.2073    47.2041  1312.0626 </r>
       <r>     1.3015    19.4507  1313.8947 </r>
       <r>     1.3957    20.3451  1315.8110 </r>
       <r>     1.4899    37.1498  1319.3101 </r>
       <r>     1.5841    32.1232  1322.3357 </r>
       <r>     1.6782    27.9070  1324.9643 </r>
       <r>     1.7724    20.3432  1326.8804 </r>
       <r>     1.8666    41.4893  1330.7883 </r>
       <r>     1.9608    37.2520  1334.2970 </r>
       <r>     2.0550    39.3311  1338.0016 </r>
       <r>     2.1492    24.6842  1340.3266 </r>
       <r>     2.2434    37.9162  1343.8979 </r>
       <r>     2.3376    24.6354  1346.2183 </r>
       <r>     2.4318    22.4441  1348.3323 </r>
       <r>     2.5260    14.7488  1349.7215 </r>
       <r>     2.6201    11.7259  1350.8259 </r>
       <r>     2.7143    19.8289  1352.6936 </r>
       <r>     2.8085    32.5872  1355.7630 </r>
       <r>     2.9027    28.0585  1358.4058 </r>
       <r>     2.9969    27.0697  1360.9555 </r>
       <r>     3.0911    19.5079  1362.7929 </r>
       <r>     3.1853    23.3936  1364.9963 </r>
       <r>     3.2795    21.0404  1366.9781 </r>
       <r>     3.3737     8.8329  1367.8101 </r>
       <r>     3.4678    30.6004  1370.6923 </r>
       <r>     3.5620    31.9182  1373.6987 </r>
       <r>     3.6562    27.8173  1376.3188 </r>
       <r>     3.7504     7.1296  1376.9903 </r>
       <r>     3.8446    21.7256  1379.0366 </r>
       <r>     3.9388    44.4446  1383.2228 </r>
       <r>     4.0330    32.5917  1386.2926 </r>
       <r>     4.1272    42.0584  1390.2541 </r>
       <r>     4.2214    50.8711  1395.0456 </r>
       <r>     4.3156    35.2418  1398.3650 </r>
       <r>     4.4097    18.4516  1400.1030 </r>
       <r>     4.5039    23.1270  1402.2813 </r>
       <r>     4.5981    31.6369  1405.2611 </r>
       <r>     4.6923    38.0106  1408.8413 </r>
       <r>     4.7865    41.0429  1412.7071 </r>
       <r>     4.8807    47.6836  1417.1984 </r>
       <r>     4.9749    38.1195  1420.7889 </r>
       <r>     5.0691    40.1193  1424.5677 </r>
       <r>     5.1633    37.0793  1428.0602 </r>
       <r>     5.2574    28.8090  1430.7737 </r>
       <r>     5.3516    59.5059  1436.3785 </r>
       <r>     5.4458    37.0907  1439.8721 </r>
       <r>     5.5400    54.3333  1444.9897 </r>
       <r>     5.6342    33.9147  1448.1841 </r>
       <r>     5.7284    34.1451  1451.4002 </r>
       <r>     5.8226    33.9039  1454.5936 </r>
       <r>     5.9168    33.0235  1457.7041 </r>
       <r>     6.0110    61.5123  1463.4979 </r>
       <r>     6.1052    54.2882  1468.6113 </r>
       <r>     6.1993    44.6518  1472.8170 </r>
       <r>     6.2935    40.3815  1476.6205 </r>
       <r>     6.3877    36.3929  1480.0483 </r>
       <r>     6.4819    51.2768  1484.8781 </r>
       <r>     6.5761    42.8341  1488.9126 </r>
       <r>     6.6703    35.2673  1492.2344 </r>
       <r>     6.7645    37.3649  1495.7538 </r>
       <r>     6.8587    59.2975  1501.3390 </r>
       <r>     6.9529    48.9647  1505.9509 </r>
       <r>     7.0470    36.5814  1509.3965 </r>
       <r>     7.1412    26.7189  1511.9132 </r>
       <r>     7.2354     0.9218  1512.0000 </r>
       <r>     7.3296     0.0001  1512.0000 </r>
       <r>     7.4238     0.0000  1512.0000 </r>
       <r>     7.5180     0.0000  1512.0000 </r>
       <r>     7.6122     0.0000  1512.0000 </r>
       <r>     7.7064     0.0000  1512.0000 </r>
       <r>     7.8006     0.0000  1512.0000 </r>
       <r>     7.8948     0.0000  1512.0000 </r>
       <r>     7.9889     0.0000  1512.0000 </r>
       <r>     8.0831     0.0000  1512.0000 </r>
       <r>     8.1773     0.0000  1512.0000 </r>
       <r>     8.2715     0.0000  1512.0000 </r>
       <r>     8.3657     0.0000  1512.0000 </r>
      </set>
     </set>
    </array>
   </total>
  </dos>
 </calculation>
 <structure name="finalpos" >
  <crystal>
   <varray name="basis" >
    <v>      10.28518105       0.00000000       0.00000000 </v>
    <v>       5.14259052       8.90722807       0.00000000 </v>
    <v>       0.00000000       0.00000000      27.79016876 </v>
   </varray>
   <i name="volume">   2545.92553775 </i>
   <varray name="rec_basis" >
    <v>       0.09722726      -0.05613419       0.00000000 </v>
    <v>       0.00000000       0.11226837       0.00000000 </v>
    <v>       0.00000000       0.00000000       0.03598395 </v>
   </varray>
  </crystal>
  <varray name="positions" >
   <v>       0.00000000       0.00000000       0.22663990 </v>
   <v>       0.00000000       0.50000000       0.22663990 </v>
   <v>       0.50000000       0.00000000       0.22663990 </v>
   <v>       0.50000000       0.50000000       0.22663990 </v>
   <v>       0.00000000       0.25000000       0.22663990 </v>
   <v>       0.00000000       0.75000000       0.22663990 </v>
   <v>       0.50000000       0.25000000       0.22663990 </v>
   <v>       0.50000000       0.75000000       0.22663990 </v>
   <v>       0.25000000       0.00000000       0.22663990 </v>
   <v>       0.25000000       0.50000000       0.22663990 </v>
   <v>       0.75000000       0.00000000       0.22663990 </v>
   <v>       0.75000000       0.50000000       0.22663990 </v>
   <v>       0.25000000       0.25000000       0.22663990 </v>
   <v>       0.25000000       0.75000000       0.22663990 </v>
   <v>       0.75000000       0.25000000       0.22663990 </v>
   <v>       0.75000000       0.75000000       0.22663990 </v>
   <v>       0.16666666       0.16666666       0.30218653 </v>
   <v>       0.16666666       0.66666666       0.30218653 </v>
   <v>       0.66666666       0.16666666       0.30218653 </v>
   <v>       0.66666666       0.66666666       0.30218653 </v>
   <v>       0.16666666       0.41666666       0.30218653 </v>
   <v>       0.16666666       0.91666666       0.30218653 </v>
   <v>       0.66666666       0.41666666       0.30218653 </v>
   <v>       0.66666666       0.91666666       0.30218653 </v>
   <v>       0.41666666       0.16666666       0.30218653 </v>
   <v>       0.41666666       0.66666666       0.30218653 </v>
   <v>       0.91666666       0.16666666       0.30218653 </v>
   <v>       0.91666666       0.66666666       0.30218653 </v>
   <v>       0.41666666       0.41666666       0.30218653 </v>
   <v>       0.41666666       0.91666666       0.30218653 </v>
   <v>       0.91666666       0.41666666       0.30218653 </v>
   <v>       0.91666666       0.91666666       0.30218653 </v>
   <v>       0.08333333       0.08333333       0.37716320 </v>
   <v>       0.08333333       0.58333333       0.37716320 </v>
   <v>       0.58333333       0.08333333       0.37716320 </v>
   <v>       0.58333333       0.58333333       0.37716320 </v>
   <v>       0.08351614       0.33324190       0.37729758 </v>
   <v>       0.08351614       0.83324190       0.37729758 </v>
   <v>       0.58351614       0.33324190       0.37729758 </v>
   <v>       0.58351614       0.83324190       0.37729758 </v>
   <v>       0.33324190       0.08351614       0.37729758 </v>
   <v>       0.33324190       0.58351614       0.37729758 </v>
   <v>       0.83324190       0.08351614       0.37729758 </v>
   <v>       0.83324190       0.58351614       0.37729758 </v>
   <v>       0.33324190       0.33324190       0.37729758 </v>
   <v>       0.33324190       0.83324190       0.37729758 </v>
   <v>       0.83324190       0.33324190       0.37729758 </v>
   <v>       0.83324190       0.83324190       0.37729758 </v>
   <v>       0.00012997       0.00012997       0.45242342 </v>
   <v>       0.00012997       0.50012997       0.45242342 </v>
   <v>       0.50012997       0.00012997       0.45242342 </v>
   <v>       0.50012997       0.50012997       0.45242342 </v>
   <v>       0.00012997       0.24974005       0.45242342 </v>
   <v>       0.00012997       0.74974005       0.45242342 </v>
   <v>       0.50012997       0.24974005       0.45242342 </v>
   <v>       0.50012997       0.74974005       0.45242342 </v>
   <v>       0.24974005       0.00012997       0.45242342 </v>
   <v>       0.24974005       0.50012997       0.45242342 </v>
   <v>       0.74974005       0.00012997       0.45242342 </v>
   <v>       0.74974005       0.50012997       0.45242342 </v>
   <v>       0.25000000       0.25000000       0.45288750 </v>
   <v>       0.25000000       0.75000000       0.45288750 </v>
   <v>       0.75000000       0.25000000       0.45288750 </v>
   <v>       0.75000000       0.75000000       0.45288750 </v>
   <v>       0.16660598       0.16660598       0.52813907 </v>
   <v>       0.16660598       0.66660598       0.52813907 </v>
   <v>       0.66660598       0.16660598       0.52813907 </v>
   <v>       0.66660598       0.66660598       0.52813907 </v>
   <v>       0.16660598       0.41678801       0.52813907 </v>
   <v>       0.16660598       0.91678801       0.52813907 </v>
   <v>       0.66660598       0.41678801       0.52813907 </v>
   <v>       0.66660598       0.91678801       0.52813907 </v>
   <v>       0.41678801       0.16660598       0.52813907 </v>
   <v>       0.41678801       0.66660598       0.52813907 </v>
   <v>       0.91678801       0.16660598       0.52813907 </v>
   <v>       0.91678801       0.66660598       0.52813907 </v>
   <v>       0.41666666       0.41666666       0.52741939 </v>
   <v>       0.41666666       0.91666666       0.52741939 </v>
   <v>       0.91666666       0.41666666       0.52741939 </v>
   <v>       0.91666666       0.91666666       0.52741939 </v>
   <v>       0.08470833       0.08333333       0.60304228 </v>
   <v>       0.08333333       0.58333333       0.60253339 </v>
   <v>       0.58333333       0.08333333       0.60253339 </v>
   <v>       0.58333333       0.58333333       0.60253339 </v>
   <v>       0.08130935       0.33434529       0.60320464 </v>
   <v>       0.08130935       0.83434529       0.60320464 </v>
   <v>       0.58130935       0.33434529       0.60320464 </v>
   <v>       0.58130935       0.83434529       0.60320464 </v>
   <v>       0.33434529       0.08130935       0.60320464 </v>
   <v>       0.33434529       0.58130935       0.60320464 </v>
   <v>       0.83434529       0.08130935       0.60320464 </v>
   <v>       0.83434529       0.58130935       0.60320464 </v>
   <v>       0.33434529       0.33434529       0.60320464 </v>
   <v>       0.33434529       0.83434529       0.60320464 </v>
   <v>       0.83434529       0.33434529       0.60320464 </v>
   <v>       0.83434529       0.83434529       0.60320464 </v>
   <v>       0.49714648       0.49714648       0.68057248 </v>
   <v>       0.49714648       0.99714648       0.68057248 </v>
   <v>       0.99714648       0.49714648       0.68057248 </v>
   <v>       0.99714648       0.99714648       0.68057248 </v>
   <v>       0.49714648       0.25570704       0.68057248 </v>
   <v>       0.49714648       0.75570704       0.68057248 </v>
   <v>       0.99714648       0.25570704       0.68057248 </v>
   <v>       0.99714648       0.75570704       0.68057248 </v>
   <v>       0.25570704       0.49714648       0.68057248 </v>
   <v>       0.25570704       0.99714648       0.68057248 </v>
   <v>       0.75570704       0.49714648       0.68057248 </v>
   <v>       0.75570704       0.99714648       0.68057248 </v>
   <v>       0.25000000       0.25000000       0.67480871 </v>
   <v>       0.25000000       0.75000000       0.67480871 </v>
   <v>       0.75000000       0.25000000       0.67480871 </v>
   <v>       0.75000000       0.75000000       0.67480871 </v>
   <v>       0.08333333       0.08333333       0.72043888 </v>
   <v>       0.08333333       0.58333333       0.72043888 </v>
   <v>       0.58333333       0.08333333       0.72043888 </v>
   <v>       0.58333333       0.58333333       0.72043888 </v>
  </varray>
 </structure>
</modeling>
